LAMMPS data file. CGCMM style. atom_style atomic generated by VMD/TopoTools v1.8 on Wed Aug 27 18:20:44 CEST 2025
 20604 atoms
 5 atom types
 -69.975174 -12.455162  xlo xhi
 -98.640900 -38.150459  ylo yhi
 -29.900190 95.682904  zlo zhi
 15.351375 -72.281566 -76.204930 xy xz yz

 Masses

1 39.0983
2 26.981538
3 28.0855
4 15.9994
5 2

 Atoms # atomic

1 1 -22.012400 -68.529129 13.260780 # 1
2 2 -20.093645 -69.393318 19.210775 # 2
3 2 -22.236364 -65.917641 16.883974 # 2
4 3 -20.345304 -65.440758 12.682845 # 3
5 3 -18.239883 -65.821861 16.709290 # 3
6 3 -18.234335 -67.248741 14.145008 # 3
7 3 -20.217789 -63.977543 15.327497 # 3
8 3 -22.141787 -68.926994 16.883600 # 3
9 3 -20.220655 -66.334526 19.165565 # 3
10 4 -25.668325 -70.051361 18.960115 # 4
11 4 -16.688810 -65.516373 17.008926 # 4
12 4 -18.058681 -68.854500 13.913808 # 4
13 4 -16.958437 -66.558441 13.504660 # 4
14 4 -21.470764 -64.808960 15.873536 # 4
15 4 -23.445734 -69.128288 17.903963 # 4
16 4 -18.976223 -66.027740 18.130762 # 4
17 4 -20.132883 -67.792931 19.739233 # 4
18 4 -22.238728 -67.506668 16.242998 # 4
19 4 -20.234369 -64.178627 13.710110 # 4
20 4 -18.389406 -67.113464 15.740664 # 4
21 4 -20.763716 -69.303719 17.614491 # 4
22 4 -21.656193 -65.979378 18.493067 # 4
23 4 -19.650602 -66.753571 13.373547 # 4
24 4 -18.884138 -64.411118 16.092550 # 4
25 1 -14.640733 -55.139999 16.130350 # 1
26 1 -20.076464 -60.919415 13.292548 # 1
27 1 -12.699238 -58.740059 9.536362 # 1
28 2 -16.490713 -54.395462 10.237864 # 2
29 2 -14.362409 -57.815853 12.609631 # 2
30 3 -16.318550 -58.322205 16.729635 # 3
31 3 -18.401142 -57.849384 12.656219 # 3
32 3 -18.357798 -56.496922 15.306149 # 3
33 3 -16.381716 -59.698360 14.169493 # 3
34 3 -14.485197 -54.755497 12.516191 # 3
35 3 -16.347290 -57.384010 10.315353 # 3
36 4 -10.931755 -53.812733 10.303923 # 4
37 4 -19.885357 -58.238396 12.286879 # 4
38 4 -18.628996 -54.899628 15.640324 # 4
39 4 -16.730194 -58.421535 9.058894 # 4
40 4 -16.172699 -61.230877 13.772531 # 4
41 4 -19.627501 -57.305748 15.799312 # 4
42 4 -15.090150 -58.881718 13.699436 # 4
43 4 -13.228196 -54.467152 11.474989 # 4
44 4 -17.610062 -57.419968 11.303185 # 4
45 4 -16.254665 -55.973862 9.617360 # 4
46 4 -14.480925 -56.210396 13.133814 # 4
47 4 -16.563223 -59.687759 15.863738 # 4
48 4 -18.257511 -56.576073 13.682107 # 4
49 4 -15.886449 -54.292221 11.875341 # 4
50 4 -15.017372 -57.830399 11.056170 # 4
51 4 -16.954597 -57.043701 15.914347 # 4
52 4 -17.705954 -59.118156 13.426168 # 4
53 1 -25.805155 -72.502304 19.946196 # 1
54 3 -24.175337 -69.472382 19.289141 # 3
55 3 -22.115574 -71.302193 20.694670 # 3
56 3 -24.052011 -68.075638 21.953516 # 3
57 4 -22.029339 -72.887444 20.482309 # 4
58 4 -20.750727 -70.637802 20.206776 # 4
59 4 -25.117056 -69.227859 22.486238 # 4
60 4 -24.038960 -68.184761 20.275093 # 4
61 4 -22.299242 -71.277084 22.329512 # 4
62 4 -23.476025 -70.774170 19.944437 # 4
63 4 -22.738180 -68.649200 22.690186 # 4
64 1 -23.906933 -64.981422 19.927984 # 1
65 1 -16.554317 -62.752865 16.122812 # 1
66 2 -20.351444 -58.338974 16.938101 # 2
67 2 -18.151030 -61.789173 19.240665 # 2
68 3 -22.175972 -61.859058 19.241795 # 3
69 3 -22.160271 -60.435101 21.891724 # 3
70 3 -20.151808 -63.734600 20.692783 # 3
71 3 -18.279167 -58.735985 19.203493 # 3
72 3 -20.270189 -61.388054 16.854961 # 3
73 4 -14.839232 -57.967678 16.979166 # 4
74 4 -23.672417 -62.286980 18.910255 # 4
75 4 -23.389830 -61.384205 22.222008 # 4
76 4 -20.364159 -62.319866 15.514615 # 4
77 4 -20.079678 -65.305130 20.407711 # 4
78 4 -20.967138 -61.098095 22.794418 # 4
79 4 -18.814665 -63.059299 20.237045 # 4
80 4 -17.001465 -58.389465 18.173586 # 4
81 4 -21.596746 -61.494583 17.796213 # 4
82 4 -20.125376 -59.920811 16.203438 # 4
83 4 -18.198713 -60.160675 19.906507 # 4
84 4 -20.488037 -63.663078 22.284929 # 4
85 4 -21.891628 -60.644993 20.282879 # 4
86 4 -19.666447 -58.378765 18.543428 # 4
87 4 -18.977947 -61.778191 17.737438 # 4
88 4 -22.252161 -58.863480 22.259935 # 4
89 4 -21.418875 -63.168037 19.837561 # 4
90 2 -12.444463 -61.288715 5.904118 # 2
91 2 -14.571545 -57.947826 3.616120 # 2
92 3 -10.555035 -57.765621 3.469564 # 3
93 3 -10.616750 -59.127247 0.810219 # 3
94 3 -12.617484 -55.939522 2.071450 # 3
95 3 -14.517214 -60.958736 3.619009 # 3
96 3 -12.595098 -58.261112 5.888671 # 3
97 4 -18.019701 -61.795494 5.639141 # 4
98 4 -9.063065 -57.308826 3.941129 # 4
99 4 -9.413511 -60.217354 0.616443 # 4
100 4 -10.124062 -57.739216 0.048684 # 4
101 4 -13.933993 -56.683792 2.587219 # 4
102 4 -15.796309 -61.033901 4.668760 # 4
103 4 -11.439990 -58.003548 4.769101 # 4
104 4 -12.589413 -59.685814 6.601481 # 4
105 4 -14.540878 -59.531521 2.860988 # 4
106 4 -12.437963 -55.999115 0.442888 # 4
107 4 -10.754286 -59.002823 2.466911 # 4
108 4 -13.111677 -61.307903 4.299292 # 4
109 4 -14.031124 -57.875088 5.290896 # 4
110 4 -12.054112 -59.673794 0.193982 # 4
111 4 -11.161188 -56.416584 2.716570 # 4
112 1 -6.993943 -47.143585 2.850063 # 1
113 3 -8.642333 -50.291878 3.457259 # 3
114 3 -10.709880 -48.430252 2.034779 # 3
115 3 -8.704671 -51.672199 0.846261 # 3
116 4 -10.912597 -46.780468 2.256936 # 4
117 4 -24.344561 -66.516830 22.326494 # 4
118 4 -7.595263 -52.743488 0.388511 # 4
119 4 -12.050540 -49.112297 2.523171 # 4
120 4 -8.331927 -50.283348 0.168614 # 4
121 4 -8.611419 -51.670399 2.492403 # 4
122 4 -10.584976 -48.565624 0.395042 # 4
123 4 -9.423589 -49.054562 2.738547 # 4
124 4 -10.206100 -52.133614 0.409230 # 4
125 1 -18.244040 -64.506874 6.659249 # 1
126 2 -16.271286 -65.288071 12.583634 # 2
127 2 -18.454262 -61.932476 10.204712 # 2
128 3 -16.527819 -61.393959 6.055823 # 3
129 3 -14.346907 -61.807083 10.160758 # 3
130 3 -14.439878 -63.228794 7.472528 # 3
131 3 -16.465538 -59.995358 8.664312 # 3
132 3 -18.306335 -64.948326 10.242259 # 3
133 3 -16.340073 -62.279408 12.542188 # 3
134 4 -21.847748 -66.001266 12.314507 # 4
135 4 -12.877948 -61.312027 10.542653 # 4
136 4 -14.342848 -64.840187 7.236552 # 4
137 4 -13.232121 -62.349937 6.919586 # 4
138 4 -17.818457 -60.797470 9.044829 # 4
139 4 -19.618654 -65.052078 11.303942 # 4
140 4 -15.004760 -62.225681 11.595046 # 4
141 4 -16.408855 -63.683064 13.277727 # 4
142 4 -18.198895 -63.512737 9.546407 # 4
143 4 -16.323757 -60.020290 6.988406 # 4
144 4 -14.481256 -63.016605 9.107998 # 4
145 4 -16.955832 -65.342194 11.008570 # 4
146 4 -17.624685 -61.838692 11.698269 # 4
147 4 -15.815795 -62.625259 6.810576 # 4
148 4 -15.142233 -60.531609 9.461007 # 4
149 1 -10.818953 -51.146599 9.484870 # 1
150 1 -16.225704 -56.971775 6.665657 # 1
151 1 -8.863740 -54.744877 2.888744 # 1
152 2 -12.711954 -50.325985 3.586736 # 2
153 2 -10.564507 -53.744114 5.996045 # 2
154 3 -12.447437 -54.239841 10.089176 # 3
155 3 -14.608657 -53.867275 6.088852 # 3
156 3 -14.502617 -52.475311 8.623248 # 3
157 3 -12.531418 -55.700520 7.540217 # 3
158 3 -10.609311 -50.744701 5.910023 # 3
159 3 -12.571137 -53.392368 3.661204 # 3
160 4 -7.168636 -49.696285 3.736177 # 4
161 4 -16.054678 -54.421299 5.599580 # 4
162 4 -14.680823 -50.926380 9.019080 # 4
163 4 -12.974341 -54.332638 2.388921 # 4
164 4 -12.261075 -57.248199 7.171632 # 4
165 4 -15.743018 -53.236153 9.180584 # 4
166 4 -11.267527 -54.859684 7.032487 # 4
167 4 -9.295274 -50.820736 4.905484 # 4
168 4 -13.906662 -53.558857 4.633471 # 4
169 4 -12.479320 -51.907513 2.949652 # 4
170 4 -10.703125 -52.159355 6.666787 # 4
171 4 -12.625694 -55.614147 9.198414 # 4
172 4 -14.641869 -52.534496 7.028213 # 4
173 4 -11.916781 -50.382206 5.094234 # 4
174 4 -11.212004 -53.905128 4.354298 # 4
175 4 -13.083318 -52.979958 9.212352 # 4
176 4 -13.942997 -55.088947 6.954744 # 4
177 5 -26.011448 -68.958885 22.459360 # 5
178 5 -22.340712 -70.306915 22.723337 # 5
179 5 -21.914471 -68.126732 22.649494 # 5
180 5 -8.646473 -60.051220 1.172147 # 5
181 5 -10.852453 -57.172447 -0.285619 # 5
182 5 -13.253878 -55.761967 -0.027674 # 5
183 5 -12.899225 -59.493740 0.523887 # 5
184 5 -27.197067 -76.931992 23.033028 # 5
185 5 -20.041801 -60.837624 22.710777 # 5
186 5 -20.727955 -62.828819 22.701862 # 5
187 5 -21.977192 -58.512566 23.134373 # 5
188 5 -24.509808 -66.285370 23.293608 # 5
189 5 -6.930763 -52.869598 1.111115 # 5
190 5 -9.082067 -49.652634 0.220480 # 5
191 5 -11.136109 -49.207256 0.002593 # 5
192 5 -10.894992 -52.135868 1.156199 # 5
193 1 -14.776951 -68.515762 13.283004 # 1
194 2 -12.907505 -69.330811 19.193703 # 2
195 2 -15.065153 -65.946625 16.808626 # 2
196 3 -13.119585 -65.402336 12.661497 # 3
197 3 -11.024876 -65.832184 16.726992 # 3
198 3 -11.087671 -67.244141 14.080709 # 3
199 3 -13.022903 -63.980331 15.370574 # 3
200 3 -14.964331 -68.978889 16.845417 # 3
201 3 -13.037592 -66.360901 19.158783 # 3
202 4 -18.476410 -69.914261 19.116970 # 4
203 4 -9.499432 -65.523415 17.154606 # 4
204 4 -11.009539 -68.872948 13.813722 # 4
205 4 -9.754580 -66.640587 13.385231 # 4
206 4 -14.296110 -64.707573 15.917490 # 4
207 4 -16.285927 -69.111061 17.736809 # 4
208 4 -11.835034 -66.213692 18.026402 # 4
209 4 -12.946008 -67.782463 19.915176 # 4
210 4 -14.937350 -67.552986 16.091045 # 4
211 4 -13.017286 -64.097931 13.678215 # 4
212 4 -11.147160 -67.115250 15.733134 # 4
213 4 -13.607709 -69.339706 17.598419 # 4
214 4 -14.437301 -66.044991 18.464436 # 4
215 4 -12.487791 -66.700264 13.495243 # 4
216 4 -11.561635 -64.534996 15.898650 # 4
217 1 -7.421150 -55.189243 16.121683 # 1
218 1 -12.916590 -61.032024 13.272076 # 1
219 1 -5.545208 -58.678329 9.511496 # 1
220 2 -9.294775 -54.365871 10.207347 # 2
221 2 -7.191232 -57.736023 12.585139 # 2
222 3 -9.111821 -58.279404 16.767563 # 3
223 3 -11.192423 -57.879345 12.701303 # 3
224 3 -11.167120 -56.466770 15.332519 # 3
225 3 -9.187850 -59.679089 14.139730 # 3
226 3 -7.260031 -54.720840 12.538924 # 3
227 3 -9.269486 -57.368641 10.215260 # 3
228 4 -3.764383 -53.859810 10.515780 # 4
229 4 -12.700610 -58.297974 12.398021 # 4
230 4 -11.408985 -54.960705 15.729115 # 4
231 4 -9.528608 -58.442265 9.042816 # 4
232 4 -9.126020 -61.298927 13.919961 # 4
233 4 -12.506102 -57.101265 15.853191 # 4
234 4 -7.825876 -58.910389 13.714886 # 4
235 4 -5.958144 -54.717518 11.570180 # 4
236 4 -10.549736 -57.399059 11.281590 # 4
237 4 -9.289008 -55.924576 9.584582 # 4
238 4 -7.510018 -56.133057 13.213810 # 4
239 4 -9.405275 -59.529675 15.748958 # 4
240 4 -10.981067 -56.586884 13.712879 # 4
241 4 -8.463964 -54.106754 11.655325 # 4
242 4 -7.804203 -57.704231 10.835389 # 4
243 4 -9.729835 -56.999599 15.942349 # 4
244 4 -10.478521 -59.155445 13.371286 # 4
245 1 -18.643900 -72.600044 19.896336 # 1
246 3 -16.933157 -69.469154 19.277838 # 3
247 3 -14.824318 -71.280739 20.728697 # 3
248 3 -16.873985 -68.028625 21.965065 # 3
249 4 -14.716704 -72.916069 20.424412 # 4
250 4 -13.496094 -70.605072 20.243446 # 4
251 4 -18.243349 -68.750572 22.450317 # 4
252 4 -16.841297 -68.214561 20.302977 # 4
253 4 -15.108932 -71.325668 22.371706 # 4
254 4 -16.233686 -70.717842 20.014387 # 4
255 4 -15.599957 -68.668259 22.710529 # 4
256 1 -16.685181 -64.978546 19.931622 # 1
257 1 -9.349294 -62.677391 16.083763 # 1
258 2 -13.148456 -58.386349 16.870037 # 2
259 2 -11.012270 -61.756035 19.207386 # 2
260 3 -15.022034 -61.845081 19.288137 # 3
261 3 -14.898972 -60.538284 21.973351 # 3
262 3 -12.890662 -63.734127 20.690905 # 3
263 3 -11.035275 -58.757614 19.194578 # 3
264 3 -13.015340 -61.412418 16.919641 # 3
265 4 -7.610619 -57.782143 17.051123 # 4
266 4 -16.536007 -62.309914 19.075150 # 4
267 4 -15.249827 -58.999748 22.314436 # 4
268 4 -13.064409 -62.405430 15.610060 # 4
269 4 -12.776612 -65.274078 20.405579 # 4
270 4 -16.000523 -61.639481 22.498545 # 4
271 4 -11.618376 -62.932243 20.275976 # 4
272 4 -9.739846 -58.646549 18.194815 # 4
273 4 -14.433758 -61.539181 17.771219 # 4
274 4 -12.919502 -59.943890 16.229809 # 4
275 4 -11.222075 -60.166206 19.938156 # 4
276 4 -13.057196 -63.623558 22.281410 # 4
277 4 -14.806684 -60.683426 20.347807 # 4
278 4 -12.382482 -58.274830 18.452003 # 4
279 4 -11.781353 -61.980576 17.766825 # 4
280 4 -13.488292 -60.999035 22.648619 # 4
281 4 -14.266416 -63.173134 19.900482 # 4
282 2 -5.244229 -61.229263 5.947697 # 2
283 2 -7.442563 -57.891731 3.566642 # 2
284 3 -3.403617 -57.779541 3.500584 # 3
285 3 -3.475214 -59.166595 0.825916 # 3
286 3 -5.398450 -55.951069 2.053489 # 3
287 3 -7.297326 -60.910965 3.599794 # 3
288 3 -5.345127 -58.249519 5.925593 # 3
289 4 -10.808846 -61.799667 5.754171 # 4
290 4 -1.861404 -57.349785 3.605697 # 4
291 4 -2.758477 -60.601578 0.465995 # 4
292 4 -2.709001 -57.838966 0.184060 # 4
293 4 -6.628417 -56.792206 2.570894 # 4
294 4 -8.655052 -61.288345 4.542797 # 4
295 4 -4.014772 -58.205723 4.927334 # 4
296 4 -5.392547 -59.667572 6.654856 # 4
297 4 -7.580187 -59.465946 2.918004 # 4
298 4 -5.039096 -56.129963 0.435728 # 4
299 4 -3.547646 -59.025898 2.498556 # 4
300 4 -5.926369 -61.097233 4.379665 # 4
301 4 -6.827385 -57.918850 5.181891 # 4
302 4 -5.007783 -59.249054 0.270085 # 4
303 4 -4.155812 -56.450665 2.933828 # 4
304 1 0.191977 -47.158314 2.804350 # 1
305 3 -1.488452 -50.183865 3.481620 # 3
306 3 -3.482499 -48.387257 2.050854 # 3
307 3 -1.482694 -51.737816 0.843750 # 3
308 4 -3.651882 -46.784195 2.210845 # 4
309 4 -16.884596 -66.428871 22.177050 # 4
310 4 -0.555367 -50.500065 0.131692 # 4
311 4 -4.819266 -49.152031 2.434634 # 4
312 4 -2.822838 -51.876152 -0.040482 # 4
313 4 -1.626375 -51.499168 2.489640 # 4
314 4 -3.186090 -48.652912 0.462226 # 4
315 4 -2.148423 -48.870270 2.881333 # 4
316 4 -0.627541 -53.081455 0.733738 # 4
317 1 -10.964098 -64.468132 6.666787 # 1
318 2 -9.067906 -65.355858 12.564165 # 2
319 2 -11.255323 -61.913734 10.284581 # 2
320 3 -9.292517 -61.420635 6.068885 # 3
321 3 -7.200087 -61.781597 10.095831 # 3
322 3 -7.280828 -63.189991 7.505178 # 3
323 3 -9.280353 -60.007816 8.653639 # 3
324 3 -11.109988 -64.938087 10.218904 # 3
325 3 -9.201906 -62.290592 12.544074 # 3
326 4 -14.615272 -65.802513 12.347037 # 4
327 4 -5.656126 -61.434185 10.512891 # 4
328 4 -7.114176 -64.817612 7.210810 # 4
329 4 -6.011906 -62.424114 6.936158 # 4
330 4 -10.526264 -60.813786 9.189244 # 4
331 4 -12.360176 -65.243866 11.211886 # 4
332 4 -7.965672 -62.043350 11.549079 # 4
333 4 -9.263121 -63.752567 13.191204 # 4
334 4 -11.153560 -63.506832 9.634562 # 4
335 4 -9.158536 -60.052063 7.007868 # 4
336 4 -7.490358 -63.052399 9.146548 # 4
337 4 -9.693206 -65.438110 10.885121 # 4
338 4 -10.586124 -61.925121 11.817577 # 4
339 4 -8.671160 -62.635021 6.943696 # 4
340 4 -7.877649 -60.520733 9.264846 # 4
341 1 -3.640594 -51.154068 9.512626 # 1
342 1 -9.087379 -56.885357 6.692907 # 1
343 1 -1.705206 -54.643543 2.819044 # 1
344 2 -5.517272 -50.302517 3.578570 # 2
345 2 -3.381522 -53.754646 5.903743 # 2
346 3 -5.250651 -54.254604 10.152472 # 3
347 3 -7.371827 -53.818951 6.036735 # 3
348 3 -7.319464 -52.471970 8.678752 # 3
349 3 -5.279425 -55.634907 7.455318 # 3
350 3 -3.402088 -50.720001 5.906004 # 3
351 3 -5.436417 -53.394417 3.594899 # 3
352 4 0.047772 -49.823040 3.732034 # 4
353 4 -8.931344 -54.192451 5.658479 # 4
354 4 -7.500715 -50.884846 8.977641 # 4
355 4 -5.703576 -54.350697 2.251409 # 4
356 4 -5.198005 -57.169674 7.187074 # 4
357 4 -8.580599 -53.385036 8.930297 # 4
358 4 -3.930374 -54.981880 6.925738 # 4
359 4 -2.175740 -50.721355 4.868312 # 4
360 4 -6.754189 -53.444405 4.569673 # 4
361 4 -5.334233 -51.892204 2.933199 # 4
362 4 -3.478535 -52.155270 6.634132 # 4
363 4 -5.468463 -55.485680 9.088783 # 4
364 4 -7.180219 -52.492599 7.039014 # 4
365 4 -4.744730 -50.206512 5.167950 # 4
366 4 -4.029358 -53.863346 4.257725 # 4
367 4 -5.970239 -52.961063 9.460632 # 4
368 4 -6.589141 -55.124760 6.690774 # 4
369 5 -19.052500 -68.163597 22.369820 # 5
370 5 -14.243384 -71.268745 22.825565 # 5
371 5 -15.500541 -69.619080 22.884832 # 5
372 5 -1.875091 -60.755955 0.836841 # 5
373 5 -3.271663 -57.089893 0.054837 # 5
374 5 -5.328922 -55.327293 -0.025159 # 5
375 5 -5.479394 -58.430256 0.352719 # 5
376 5 -16.620251 -75.618462 22.444920 # 5
377 5 -16.874811 -61.234261 22.633423 # 5
378 5 -13.272347 -62.744476 22.697842 # 5
379 5 -12.690763 -60.519485 22.385771 # 5
380 5 -16.693220 -65.905594 22.979277 # 5
381 5 -1.079270 -49.689713 0.078824 # 5
382 5 -3.520663 -51.195465 0.077566 # 5
383 5 -3.811209 -48.283951 -0.160666 # 5
384 5 0.310155 -53.054455 1.008135 # 5
385 1 -7.577392 -68.502052 13.302975 # 1
386 2 -63.267532 -69.299698 19.175617 # 2
387 2 -7.859480 -65.942322 16.836128 # 2
388 3 -5.926477 -65.417732 12.683474 # 3
389 3 -61.415062 -65.789017 16.773588 # 3
390 3 -61.391083 -67.267799 14.118009 # 3
391 3 -5.947980 -64.017921 15.347085 # 3
392 3 -7.774562 -68.947533 16.849564 # 3
393 3 -63.360355 -66.301094 19.157534 # 3
394 4 -11.282075 -69.776550 18.988619 # 4
395 4 -59.942295 -65.349243 17.044220 # 4
396 4 -61.113613 -68.831154 13.869353 # 4
397 4 -60.039032 -66.507721 13.647068 # 4
398 4 -7.258441 -64.731987 15.813878 # 4
399 4 -9.016560 -68.946457 17.898687 # 4
400 4 -62.047977 -66.182686 18.236881 # 4
401 4 -63.409309 -67.746902 19.855772 # 4
402 4 -7.610262 -67.496201 16.188370 # 4
403 4 -5.741290 -64.250687 13.774536 # 4
404 4 -61.637405 -67.090614 15.748958 # 4
405 4 -63.990356 -69.566391 17.596781 # 4
406 4 -7.255015 -65.859459 18.464817 # 4
407 4 -5.197953 -66.756889 13.355590 # 4
408 4 -4.678227 -64.486572 16.190886 # 4
409 1 -57.719696 -55.160763 16.129976 # 1
410 1 -5.639741 -60.960789 13.298326 # 1
411 1 -55.886841 -58.735374 9.505215 # 1
412 2 -2.163355 -54.379818 10.197930 # 2
413 2 -57.517487 -57.763351 12.569068 # 2
414 3 -59.421944 -58.309044 16.732771 # 3
415 3 -4.012926 -57.843445 12.657095 # 3
416 3 -3.932585 -56.395504 15.333903 # 3
417 3 -59.538326 -59.674515 14.093516 # 3
418 3 -57.626518 -54.775242 12.565677 # 3
419 3 -2.008800 -57.355179 10.179719 # 3
420 4 -54.072311 -53.902061 10.447342 # 4
421 4 -5.528196 -58.243484 12.377301 # 4
422 4 -3.941594 -54.781620 15.516628 # 4
423 4 -2.256412 -58.521057 8.991834 # 4
424 4 -59.433479 -61.308002 13.920964 # 4
425 4 -5.236217 -57.140884 15.907820 # 4
426 4 -58.263931 -58.998264 13.529144 # 4
427 4 -56.348423 -54.543022 11.577590 # 4
428 4 -3.272629 -57.577404 11.160402 # 4
429 4 -2.070961 -55.931053 9.444434 # 4
430 4 -57.705643 -56.177879 13.217200 # 4
431 4 -59.748844 -59.561249 15.727228 # 4
432 4 -3.824824 -56.600029 13.743015 # 4
433 4 -1.494334 -54.339779 11.797105 # 4
434 4 -58.133282 -57.788906 10.877838 # 4
435 4 -60.145203 -56.981339 16.074841 # 4
436 4 -3.319648 -59.147099 13.275092 # 4
437 1 -11.467034 -72.548027 19.901232 # 1
438 3 -9.733514 -69.450668 19.260635 # 3
439 3 -65.282242 -71.283051 20.688643 # 3
440 3 -9.621961 -67.994202 21.951502 # 3
441 4 -65.023323 -72.830887 20.379827 # 4
442 4 -63.981842 -70.443588 20.267309 # 4
443 4 -10.917550 -68.779526 22.465639 # 4
444 4 -9.342372 -68.301590 20.401932 # 4
445 4 -65.690750 -71.085487 22.244740 # 4
446 4 -9.083682 -70.775436 19.875242 # 4
447 4 -65.938324 -68.517448 22.884960 # 4
448 1 -9.400397 -65.086197 19.967670 # 1
449 1 -59.666878 -62.766655 16.131983 # 1
450 2 -5.954470 -58.402557 16.863255 # 2
451 2 -61.319553 -61.794628 19.177877 # 2
452 3 -7.860631 -61.855274 19.314508 # 3
453 3 -7.781512 -60.507790 21.942331 # 3
454 3 -63.294933 -63.725422 20.695799 # 3
455 3 -61.455868 -58.762157 19.154015 # 3
456 3 -5.843873 -61.414391 16.879326 # 3
457 4 -57.932072 -57.827034 17.026009 # 4
458 4 -9.348091 -62.230865 18.802130 # 4
459 4 -7.889430 -58.987366 22.344078 # 4
460 4 -6.132509 -62.383751 15.586699 # 4
461 4 -63.164074 -65.331543 20.469877 # 4
462 4 -9.003786 -61.264359 22.580547 # 4
463 4 -61.947746 -63.013744 20.255377 # 4
464 4 -60.260815 -58.608345 18.085304 # 4
465 4 -7.141876 -61.519295 17.882488 # 4
466 4 -5.744062 -59.991226 16.153706 # 4
467 4 -61.574520 -60.234154 19.809685 # 4
468 4 -63.346119 -63.444748 22.300753 # 4
469 4 -7.784233 -60.578991 20.326330 # 4
470 4 -5.345439 -58.409512 18.489931 # 4
471 4 -62.040531 -61.965210 17.586990 # 4
472 4 -63.886959 -61.015800 22.525919 # 4
473 4 -7.138247 -63.220390 19.917055 # 4
474 2 -55.601460 -61.302502 5.931121 # 2
475 2 -0.187962 -57.919613 3.552577 # 2
476 3 -53.726387 -57.774841 3.497822 # 3
477 3 -53.831963 -59.213718 0.912944 # 3
478 3 1.736484 -55.948265 2.039802 # 3
479 3 -0.075178 -60.889523 3.574928 # 3
480 3 -55.691113 -58.288132 5.869206 # 3
481 4 -3.646848 -61.830647 5.829649 # 4
482 4 -52.220959 -57.333794 3.822079 # 4
483 4 2.104790 -59.269516 0.494503 # 4
484 4 -53.127266 -60.668438 0.633397 # 4
485 4 0.487613 -56.798565 2.482481 # 4
486 4 -1.417673 -61.061939 4.547194 # 4
487 4 -54.394356 -58.062740 4.917790 # 4
488 4 -55.753090 -59.721073 6.468991 # 4
489 4 0.053468 -59.491528 2.835747 # 4
490 4 2.076568 -55.978416 0.421540 # 4
491 4 -53.830181 -59.093018 2.576669 # 4
492 4 -56.304329 -61.335613 4.329308 # 4
493 4 0.523527 -57.914211 5.069870 # 4
494 4 -53.136089 -57.994133 0.205408 # 4
495 4 -54.470692 -56.473198 2.876060 # 4
496 1 -50.092106 -47.079437 2.885603 # 1
497 3 -51.766350 -50.268639 3.519548 # 3
498 3 3.670972 -48.400585 2.058264 # 3
499 3 -51.901108 -51.713390 0.884938 # 3
500 4 3.707081 -46.844421 2.331030 # 4
501 4 -9.701197 -66.369484 22.229418 # 4
502 4 -51.116508 -50.447201 0.133201 # 4
503 4 2.335895 -49.130024 2.510614 # 4
504 4 4.045440 -51.639206 0.442888 # 4
505 4 -51.889450 -51.511749 2.490142 # 4
506 4 3.788643 -48.544044 0.429452 # 4
507 4 -52.576439 -49.099266 2.797067 # 4
508 4 -51.206047 -53.221119 0.664038 # 4
509 1 -3.868057 -64.497719 6.703080 # 1
510 2 -59.420227 -65.347374 12.577100 # 2
511 2 -4.028902 -61.950542 10.258712 # 2
512 3 -2.126770 -61.304920 6.011869 # 3
513 3 -57.575249 -61.819923 10.135263 # 3
514 3 -57.587078 -63.202190 7.458590 # 3
515 3 -1.985076 -60.029556 8.707510 # 3
516 3 -3.949739 -64.966530 10.257207 # 3
517 3 -59.510006 -62.312492 12.602093 # 3
518 4 -7.424173 -65.818932 12.358842 # 4
519 4 -56.075439 -61.490616 10.456758 # 4
520 4 -57.412128 -64.831116 7.169371 # 4
521 4 -56.241405 -62.519318 6.988278 # 4
522 4 -3.264610 -60.887753 9.124825 # 4
523 4 -5.203833 -65.223000 11.287242 # 4
524 4 -58.303879 -62.059685 11.590645 # 4
525 4 -59.334766 -63.746357 13.252741 # 4
526 4 -4.100897 -63.540100 9.499189 # 4
527 4 -1.987300 -60.061062 7.040144 # 4
528 4 -57.802853 -63.030106 9.075220 # 4
529 4 -60.162766 -65.459229 10.977551 # 4
530 4 -3.417153 -62.016144 11.860020 # 4
531 4 -1.371171 -62.657215 6.631370 # 4
532 4 -58.147850 -60.461079 9.422330 # 4
533 1 -53.937321 -51.161411 9.518149 # 1
534 1 -1.876489 -56.981377 6.662640 # 1
535 1 -52.026962 -54.741100 2.841148 # 1
536 2 1.726740 -50.326878 3.568274 # 2
537 2 -53.703545 -53.727142 5.866694 # 2
538 3 -55.599224 -54.316032 10.133385 # 3
539 3 -0.203745 -53.756809 6.074286 # 3
540 3 -0.165448 -52.441494 8.673984 # 3
541 3 -55.681614 -55.679703 7.459466 # 3
542 3 -53.823051 -50.743645 5.882268 # 3
543 3 1.793587 -53.351864 3.614990 # 3
544 4 -50.304424 -49.740265 3.858495 # 4
545 4 -1.686492 -54.284184 5.619547 # 4
546 4 -0.334887 -50.877018 8.913215 # 4
547 4 1.463573 -54.404408 2.478087 # 4
548 4 -55.693733 -57.283695 7.252758 # 4
549 4 -1.555224 -53.127068 9.176063 # 4
550 4 -54.327564 -55.106575 6.762985 # 4
551 4 -52.483200 -50.686588 4.923063 # 4
552 4 0.488165 -53.384369 4.626940 # 4
553 4 1.950398 -51.962204 2.825953 # 4
554 4 -53.964294 -52.141224 6.640790 # 4
555 4 -55.715420 -55.535233 9.062285 # 4
556 4 -0.252037 -52.498947 7.040900 # 4
557 4 2.403194 -50.230759 5.159162 # 4
558 4 -54.345036 -53.798878 4.263628 # 4
559 4 -56.326260 -53.102497 9.286194 # 4
560 4 0.516034 -54.991669 6.869097 # 4
561 5 -11.706531 -68.261543 22.609186 # 5
562 5 -65.740700 -70.133980 22.599133 # 5
563 5 -65.915817 -68.135269 23.853712 # 5
564 5 1.397960 -59.354980 1.128193 # 5
565 5 -52.162758 -60.716278 0.667680 # 5
566 5 1.595906 -56.652706 -0.042993 # 5
567 5 3.803015 -57.220966 0.107455 # 5
568 5 -13.104398 -77.254784 22.434748 # 5
569 5 -8.783074 -62.129810 22.840258 # 5
570 5 -62.462181 -63.660034 22.762396 # 5
571 5 -63.661552 -61.950893 22.618977 # 5
572 5 -10.058732 -65.922745 23.043821 # 5
573 5 5.869559 -49.890640 -0.461311 # 5
574 5 3.369239 -51.932835 1.150675 # 5
575 5 3.302105 -49.262299 0.040267 # 5
576 5 -50.282349 -53.163151 0.400438 # 5
577 1 -57.983482 -68.548134 13.295190 # 1
578 2 -55.990505 -69.308815 19.201614 # 2
579 2 -58.233208 -65.963394 16.894775 # 2
580 3 -56.274696 -65.376152 12.619047 # 3
581 3 -54.175758 -65.887329 16.760654 # 3
582 3 -54.212254 -67.254555 14.103060 # 3
583 3 -56.271099 -64.006905 15.306904 # 3
584 3 -58.071812 -68.962723 16.860239 # 3
585 3 -56.140728 -66.344200 19.187796 # 3
586 4 -61.653881 -69.699089 19.150751 # 4
587 4 -52.634773 -65.472404 17.086790 # 4
588 4 -54.021866 -68.866577 13.822764 # 4
589 4 -52.934914 -66.385147 13.763862 # 4
590 4 -57.457005 -64.815315 15.916607 # 4
591 4 -59.450546 -69.133179 17.799477 # 4
592 4 -54.917484 -66.126831 18.198954 # 4
593 4 -56.113426 -67.720207 19.919443 # 4
594 4 -58.080994 -67.532677 16.158855 # 4
595 4 -56.122543 -64.003685 13.654479 # 4
596 4 -54.435215 -67.206192 15.788893 # 4
597 4 -56.789501 -69.389450 17.648901 # 4
598 4 -57.511978 -65.981262 18.485910 # 4
599 4 -55.634029 -66.731026 13.341277 # 4
600 4 -54.797195 -64.545006 15.942859 # 4
601 1 -50.507069 -55.129692 16.076981 # 1
602 1 -55.962044 -60.945118 13.345672 # 1
603 1 -48.652184 -58.764404 9.497431 # 1
604 2 -52.431858 -54.394241 10.193784 # 2
605 2 -50.345337 -57.740517 12.572205 # 2
606 3 -52.245937 -58.249199 16.728251 # 3
607 3 -54.272045 -57.800354 12.686865 # 3
608 3 -54.253757 -56.454834 15.283543 # 3
609 3 -52.255074 -59.702927 14.069660 # 3
610 3 -50.411907 -54.680248 12.550983 # 3
611 3 -52.313816 -57.344528 10.232842 # 3
612 4 -46.887604 -53.848877 10.409541 # 4
613 4 -55.795986 -58.225037 12.442603 # 4
614 4 -54.421276 -54.836388 15.612568 # 4
615 4 -52.621696 -58.426933 9.008279 # 4
616 4 -52.281868 -61.262974 13.803295 # 4
617 4 -55.577488 -57.198563 15.821544 # 4
618 4 -50.989677 -59.009827 13.533545 # 4
619 4 -49.119762 -54.489681 11.595548 # 4
620 4 -53.705532 -57.349388 11.229342 # 4
621 4 -52.290043 -55.969578 9.433259 # 4
622 4 -50.452675 -56.173622 13.150768 # 4
623 4 -52.436558 -59.521446 15.726727 # 4
624 4 -54.143600 -56.536251 13.690648 # 4
625 4 -51.728188 -54.230488 11.848470 # 4
626 4 -50.977608 -57.843651 10.975036 # 4
627 4 -52.830265 -56.858421 15.974252 # 4
628 4 -53.618248 -59.060165 13.372169 # 4
629 1 -61.806240 -72.596352 19.895332 # 1
630 3 -60.053253 -69.423874 19.318153 # 3
631 3 -58.076729 -71.275642 20.724686 # 3
632 3 -60.015625 -68.051407 21.914083 # 3
633 4 -57.767242 -72.852150 20.453552 # 4
634 4 -56.850422 -70.386864 20.248596 # 4
635 4 -60.239769 -66.445358 22.039537 # 4
636 4 -59.754799 -68.221428 20.338516 # 4
637 4 -58.401886 -71.222549 22.337042 # 4
638 4 -59.457172 -70.787109 20.003832 # 4
639 4 -61.393276 -68.920952 22.273245 # 4
640 1 -59.824348 -64.963409 19.969175 # 1
641 1 -52.489727 -62.706768 16.109249 # 1
642 2 -56.248505 -58.376110 16.827843 # 2
643 2 -54.098122 -61.738991 19.171724 # 2
644 3 -58.192532 -61.850609 19.302330 # 3
645 3 -58.025936 -60.498402 21.917091 # 3
646 3 -56.089394 -63.680698 20.666157 # 3
647 3 -54.241055 -58.717648 19.191816 # 3
648 3 -56.187851 -61.410637 16.887493 # 3
649 4 -50.712231 -57.908169 17.030029 # 4
650 4 -59.692810 -62.164700 18.945795 # 4
651 4 -58.558170 -58.987480 22.291830 # 4
652 4 -56.591042 -62.403805 15.630907 # 4
653 4 -55.920494 -65.281525 20.452040 # 4
654 4 -58.941326 -61.609322 22.709518 # 4
655 4 -54.820591 -62.908981 20.214314 # 4
656 4 -52.895351 -58.615467 18.159147 # 4
657 4 -57.461254 -61.436150 17.907856 # 4
658 4 -56.019783 -59.982895 16.252415 # 4
659 4 -54.291752 -60.123600 19.814709 # 4
660 4 -56.346401 -63.591408 22.332401 # 4
661 4 -58.098495 -60.638622 20.349438 # 4
662 4 -55.482418 -58.181198 18.359701 # 4
663 4 -54.899967 -61.937645 17.699764 # 4
664 4 -56.581070 -60.838535 22.605915 # 4
665 4 -57.506443 -63.211967 19.988008 # 4
666 2 -48.417713 -61.241386 5.940665 # 2
667 2 -50.573582 -57.845192 3.607078 # 2
668 3 -46.515911 -57.801590 3.532232 # 3
669 3 -46.597542 -59.250671 0.824909 # 3
670 3 -48.595310 -55.973660 2.056629 # 3
671 3 -50.442448 -60.879223 3.587361 # 3
672 3 -48.571815 -58.289726 5.909017 # 3
673 4 -53.909752 -61.660480 5.613522 # 4
674 4 -45.027454 -57.497864 3.977422 # 4
675 4 -45.701736 -60.566368 0.538958 # 4
676 4 -46.114697 -57.894852 0.041397 # 4
677 4 -49.889301 -56.835701 2.450081 # 4
678 4 -51.712162 -61.174988 4.570803 # 4
679 4 -47.271481 -58.162010 4.905735 # 4
680 4 -48.568489 -59.694584 6.655608 # 4
681 4 -50.507366 -59.422974 2.931818 # 4
682 4 -48.349781 -56.229202 0.414253 # 4
683 4 -46.563705 -59.044559 2.449957 # 4
684 4 -49.104538 -61.204510 4.360578 # 4
685 4 -49.924080 -57.810310 5.183650 # 4
686 4 -48.135094 -59.700676 0.359000 # 4
687 4 -47.247379 -56.474445 2.820302 # 4
688 1 -42.946644 -47.153828 2.850692 # 1
689 3 -44.572609 -50.203102 3.459392 # 3
690 3 -46.660694 -48.447006 2.042062 # 3
691 3 -44.666218 -51.653553 0.843245 # 3
692 4 -46.702122 -46.845524 2.385782 # 4
693 4 -58.785381 -68.599434 22.841133 # 4
694 4 -46.258381 -51.929127 0.386752 # 4
695 4 -47.974945 -49.127087 2.488132 # 4
696 4 -43.857651 -53.019550 0.532427 # 4
697 4 -44.751255 -51.473312 2.445436 # 4
698 4 -46.507401 -48.462723 0.373690 # 4
699 4 -45.216576 -49.003918 2.658674 # 4
700 4 -43.939293 -50.428043 0.085478 # 4
701 1 -54.137131 -64.452873 6.643930 # 1
702 2 -52.231781 -65.337830 12.560272 # 2
703 2 -54.387180 -61.963131 10.208979 # 2
704 3 -52.418537 -61.389511 6.043015 # 3
705 3 -50.344749 -61.800838 10.103616 # 3
706 3 -50.465973 -63.264278 7.426440 # 3
707 3 -52.372074 -59.997849 8.679380 # 3
708 3 -54.293743 -64.978554 10.225184 # 3
709 3 -52.300701 -62.361835 12.527996 # 3
710 4 -57.772610 -65.836967 12.241921 # 4
711 4 -48.821484 -61.447830 10.507367 # 4
712 4 -50.140511 -64.798111 7.174895 # 4
713 4 -49.106842 -62.514690 6.914563 # 4
714 4 -53.599579 -60.800735 9.241110 # 4
715 4 -55.616512 -65.091125 11.096732 # 4
716 4 -51.159920 -61.968056 11.452503 # 4
717 4 -52.116974 -63.764061 13.252112 # 4
718 4 -54.123024 -63.566887 9.455109 # 4
719 4 -52.352345 -60.067932 7.053955 # 4
720 4 -50.593746 -63.040642 9.100461 # 4
721 4 -52.992294 -65.443161 10.977678 # 4