LAMMPS data file. CGCMM style. atom_style atomic generated by VMD/TopoTools v1.8 on Fri Jul 18 16:55:32 CEST 2025
 21500 atoms
 5 atom types
 -40.486036 17.033972  xlo xhi
 -59.721411 0.769030  ylo yhi
 -26.704106 98.878988  zlo zhi
 15.351375 -72.281566 -76.204930 xy xz yz

 Masses

1 39.0983
2 26.981538
3 28.0855
4 15.9994
5 2

 Atoms # atomic

1 1 -6.303653 -7.493796 12.933309 # 1
2 1 -8.069677 -4.049818 19.434618 # 1
3 1 -0.752135 -1.915202 15.638618 # 1
4 2 -4.200201 -8.463592 18.695688 # 2
5 2 -6.488646 -5.083274 16.396141 # 2
6 3 -4.516670 -4.480664 12.283290 # 3
7 3 -2.487612 -4.884252 16.307604 # 3
8 3 -2.554420 -6.349902 13.705646 # 3
9 3 -4.480750 -3.121962 14.828233 # 3
10 3 -6.242661 -8.045726 16.359844 # 3
11 3 -4.400663 -5.441124 18.701468 # 3
12 4 -9.759809 -8.910353 18.402077 # 4
13 4 -1.000550 -4.593265 16.523983 # 4
14 4 -2.385150 -7.977988 13.453221 # 4
15 4 -4.688471 -1.536700 15.097106 # 4
16 4 -4.289319 -4.369091 19.980906 # 4
17 4 -1.233125 -5.628724 13.205700 # 4
18 4 -5.750700 -3.959682 15.245794 # 4
19 4 -7.514604 -8.262379 17.388367 # 4
20 4 -3.119670 -5.235833 17.712999 # 4
21 4 -4.311620 -6.860802 19.433113 # 4
22 4 -6.450646 -6.654843 15.661605 # 4
23 4 -4.339163 -3.161093 13.206326 # 4
24 4 -2.805420 -6.177706 15.311224 # 4
25 4 -4.914587 -8.384220 17.105183 # 4
26 4 -5.768987 -5.079328 17.966175 # 4
27 4 -3.853098 -5.810935 12.913843 # 4
28 4 -3.094036 -3.575852 15.591774 # 4
29 1 1.260883 5.679124 15.659464 # 1
30 2 -0.970010 6.521078 9.825255 # 2
31 2 1.408418 3.132077 12.144897 # 2
32 3 -0.561385 2.646001 16.309237 # 3
33 3 -2.639499 2.970522 12.207564 # 3
34 3 -2.640134 4.457362 14.833128 # 3
35 3 -0.627304 1.241534 13.749098 # 3
36 3 1.080479 6.172766 12.149546 # 3
37 3 -0.650817 3.498427 9.813196 # 3
38 4 4.619536 6.996572 10.064741 # 4
39 4 -4.131748 2.558212 11.802057 # 4
40 4 -2.664206 6.057284 15.091200 # 4
41 4 -3.977685 3.741428 15.259231 # 4
42 4 0.605824 1.954101 13.123189 # 4
43 4 2.251900 6.341587 11.016033 # 4
44 4 -1.815654 3.394466 10.928249 # 4
45 4 -0.679769 4.965183 9.201356 # 4
46 4 1.031895 4.683650 12.735640 # 4
47 4 -0.807724 1.330656 15.380927 # 4
48 4 -2.476821 4.310585 13.141401 # 4
49 4 -0.343436 6.713926 11.534565 # 4
50 4 0.693810 3.102315 10.520605 # 4
51 4 -1.291315 3.836950 15.542925 # 4
52 4 -2.038020 1.678644 13.041812 # 4
53 1 -9.997119 -11.563458 19.495527 # 1
54 1 -10.889709 -7.995764 26.878935 # 1
55 1 -4.249578 -5.801507 22.290632 # 1
56 2 -7.983909 -12.373897 25.415768 # 2
57 2 -10.072563 -9.065454 23.104282 # 2
58 3 -8.262126 -8.495906 18.810850 # 3
59 3 -6.100787 -8.769172 22.766842 # 3
60 3 -6.186115 -10.337090 20.258448 # 3
61 3 -8.153177 -7.113511 21.363701 # 3
62 3 -10.015617 -12.241589 23.118975 # 3
63 3 -8.025284 -9.191634 25.304253 # 3
64 4 -13.522226 -13.229765 25.275494 # 4
65 4 -4.561727 -8.491776 23.155144 # 4
66 4 -6.177494 -11.895769 20.007277 # 4
67 4 -8.316853 -5.534986 21.707676 # 4
68 4 -7.484299 -8.299325 26.642712 # 4
69 4 -4.823353 -9.709019 19.729616 # 4
70 4 -9.250378 -8.008673 22.038212 # 4
71 4 -11.405594 -12.594075 23.893948 # 4
72 4 -6.969058 -8.756801 24.155918 # 4
73 4 -7.993749 -10.706721 25.704859 # 4
74 4 -9.811813 -10.739078 22.719746 # 4
75 4 -8.226197 -7.170998 19.730873 # 4
76 4 -6.304942 -10.122541 21.875078 # 4
77 4 -8.827085 -12.903669 24.026438 # 4
78 4 -9.482691 -8.741995 24.769012 # 4
79 4 -7.580049 -9.718533 19.620989 # 4
80 4 -6.713397 -7.621203 21.811781 # 4
81 1 -2.457177 1.504625 22.186901 # 1
82 2 -4.603886 2.485521 16.386589 # 2
83 2 -2.282924 -0.879591 18.683510 # 2
84 3 -4.169109 -1.318399 22.857386 # 3
85 3 -6.281662 -0.985194 18.815872 # 3
86 3 -6.204006 0.401838 21.385303 # 3
87 3 -4.304996 -2.804497 20.303276 # 3
88 3 -2.539649 2.151384 18.771666 # 3
89 3 -4.293824 -0.564526 16.335352 # 3
90 4 0.954515 2.970323 16.666264 # 4
91 4 -7.801639 -1.434921 18.460852 # 4
92 4 -6.287142 2.017251 21.573681 # 4
93 4 -7.430791 -0.309183 21.996010 # 4
94 4 -2.920004 -2.122912 19.726225 # 4
95 4 -1.229503 2.424296 17.796766 # 4
96 4 -5.478948 -0.746978 17.448273 # 4
97 4 -4.511582 0.876558 15.746870 # 4
98 4 -2.466578 0.715905 19.453085 # 4
99 4 -4.283408 -2.689921 21.925056 # 4
100 4 -6.099879 0.334700 19.751337 # 4
101 4 -3.867593 2.437616 17.933023 # 4
102 4 -2.883050 -0.975873 17.036863 # 4
103 4 -4.851879 -0.195081 21.975044 # 4
104 4 -5.670048 -2.254285 19.682646 # 4
105 1 -13.693336 -15.854044 26.191744 # 1
106 1 -0.635669 3.923330 6.334922 # 1
107 1 6.774455 6.298292 2.278716 # 1
108 2 3.107231 -0.496930 5.400333 # 2
109 2 0.940656 2.794439 3.101032 # 2
110 3 -12.087892 -12.577176 25.430080 # 3
111 3 4.918734 2.862855 3.213178 # 3
112 3 1.074269 -0.226069 3.250226 # 3
113 3 2.833165 2.684116 5.504944 # 3
114 4 -2.370369 -0.929835 5.298611 # 4
115 4 6.495172 2.767831 3.481422 # 4
116 4 -9.408208 -15.813096 26.471672 # 4
117 4 2.288013 6.388263 2.113196 # 4
118 4 2.916897 3.602877 6.868398 # 4
119 4 -8.670830 -13.149899 26.773443 # 4
120 4 1.471506 4.039009 2.037216 # 4
121 4 -0.083171 -0.014081 4.430955 # 4
122 4 4.133137 3.091448 4.612172 # 4
123 4 2.795623 1.137755 5.998864 # 4
124 4 1.557595 1.210117 2.699919 # 4
125 4 -12.168722 -10.980102 25.911949 # 4
126 4 4.361923 1.505330 2.487560 # 4
127 4 2.452841 -0.920152 3.821754 # 4
128 4 1.520936 3.171778 4.704979 # 4
129 4 -11.199082 -13.464239 26.484106 # 4
130 4 4.662244 4.211950 2.303578 # 4
131 1 8.623499 13.861411 2.329451 # 1
132 2 -8.143955 -1.441583 23.041742 # 2
133 2 -5.974767 -4.812979 25.289804 # 2
134 3 6.813833 10.472593 3.194468 # 3
135 3 -10.012710 -4.837883 25.425941 # 3
136 3 -6.164186 -1.683287 25.342674 # 3
137 3 -8.057356 -4.571596 22.987114 # 3
138 4 -2.689346 -0.955333 23.193821 # 4
139 4 -11.433920 -5.485761 25.207174 # 4
140 4 4.253866 13.979482 1.991631 # 4
141 4 3.367827 11.491494 1.949185 # 4
142 4 -6.665572 -5.978886 26.415285 # 4
143 4 -4.990169 -1.488776 24.208788 # 4
144 4 -9.386573 -4.738262 23.945812 # 4
145 4 -7.937369 -3.122985 22.450123 # 4
146 4 -6.219931 -3.181598 25.854805 # 4
147 4 6.169079 9.133285 2.460557 # 4
148 4 -10.099804 -3.373811 26.000605 # 4
149 4 -7.543084 -1.206097 24.666037 # 4
150 4 -6.771271 -5.059349 23.802776 # 4
151 4 6.484847 11.884823 2.368633 # 4
152 4 -9.242612 -5.844658 26.469412 # 4
153 1 -2.576822 -3.606869 6.168021 # 1
154 1 -4.441907 -0.013343 12.906058 # 1
155 1 2.938096 2.132669 9.175611 # 1
156 2 -0.546004 -4.398522 12.123298 # 2
157 2 -2.869227 -1.052141 9.959628 # 2
158 3 -0.887810 -0.492030 5.723209 # 3
159 3 1.153537 -0.946734 9.698791 # 3
160 3 1.122127 -2.404771 7.076112 # 3
161 3 -0.916312 0.894978 8.315620 # 3
162 3 -2.583964 -4.062510 9.805411 # 3
163 3 -0.802337 -1.408945 12.234313 # 3
164 4 -6.084783 -4.971943 12.014293 # 4
165 4 2.671174 -0.590646 10.068761 # 4
166 4 1.094217 -3.989306 6.880206 # 4
167 4 -0.949684 2.490818 8.594666 # 4
168 4 -0.486823 -0.422745 13.555322 # 4
169 4 2.426433 -1.824146 6.428983 # 4
170 4 -2.185880 0.169821 8.943033 # 4
171 4 -3.908089 -4.226991 10.795508 # 4
172 4 0.365432 -1.280607 11.082088 # 4
173 4 -0.767370 -2.840861 12.853942 # 4
174 4 -2.553989 -2.601514 9.250209 # 4
175 4 -1.005491 0.867403 6.679648 # 4
176 4 1.135904 -2.180118 8.665620 # 4
177 4 -1.184207 -4.412565 10.475398 # 4
178 4 -2.190165 -1.014845 11.543982 # 4
179 4 -0.283180 -1.734269 6.576043 # 4
180 4 0.548518 0.381936 8.945167 # 4
181 1 4.869710 9.693665 9.186790 # 1
182 2 2.857179 10.375191 3.130292 # 2
183 2 5.044439 6.982930 5.386518 # 2
184 3 3.095099 6.663392 9.659609 # 3
185 3 1.087753 7.083324 5.650118 # 3
186 3 1.034499 8.458533 8.264256 # 3
187 3 3.031659 5.181692 7.134135 # 3
188 3 4.879430 10.192256 5.507328 # 3
189 3 3.048085 7.361628 3.166462 # 3
190 4 8.354629 10.367853 3.182158 # 4
191 4 -0.440838 6.657873 5.177045 # 4
192 4 0.871187 10.002553 8.626310 # 4
193 4 -0.200680 7.654058 8.812552 # 4
194 4 4.334483 5.851835 6.519027 # 4
195 4 6.251299 10.531372 4.709126 # 4
196 4 1.963558 7.476124 4.397302 # 4
197 4 3.330779 8.814774 2.540556 # 4
198 4 4.991549 8.658118 6.002629 # 4
199 4 3.069226 5.267600 8.768973 # 4
200 4 1.029168 8.428054 6.600782 # 4
201 4 3.585575 10.636633 4.704728 # 4
202 4 4.419629 6.658221 3.823135 # 4
203 4 2.429274 7.924520 8.798484 # 4
204 4 1.691850 5.857279 6.534975 # 4
205 1 0.811253 -7.544812 12.918491 # 1
206 1 -0.938642 -4.048536 19.482346 # 1
207 1 6.464087 -1.921980 15.661852 # 1
208 2 3.000278 -8.402720 18.701340 # 2
209 2 0.726584 -5.008429 16.425020 # 2
210 3 2.636987 -4.616914 12.220626 # 3
211 3 4.687139 -4.917132 16.299692 # 3
212 3 4.630454 -6.360411 13.753368 # 3
213 3 2.726910 -3.109147 14.833630 # 3
214 3 0.907423 -8.013865 16.347914 # 3
215 3 2.734296 -5.367069 18.730352 # 3
216 4 -2.473376 -9.014065 18.451180 # 4
217 4 6.218400 -4.635808 16.563288 # 4
218 4 4.728676 -7.946978 13.511368 # 4
219 4 2.563051 -1.508100 15.025149 # 4
220 4 3.080625 -4.397411 20.066553 # 4
221 4 5.880970 -5.557974 13.157098 # 4
222 4 1.449190 -3.886630 15.410809 # 4
223 4 -0.397850 -8.091793 17.358358 # 4
224 4 3.967951 -5.103101 17.732716 # 4
225 4 2.730940 -6.831067 19.389790 # 4
226 4 0.988329 -6.595375 15.641260 # 4
227 4 2.788308 -3.295419 13.216752 # 4
228 4 4.464828 -6.223696 15.366481 # 4
229 4 2.292043 -8.484729 17.087097 # 4
230 4 1.329947 -5.015630 18.036755 # 4
231 4 3.180671 -5.922585 13.077102 # 4
232 4 4.041988 -3.593989 15.580097 # 4
233 1 8.422191 5.608041 15.676418 # 1
234 2 6.293696 6.513881 9.875991 # 2
235 2 8.587252 3.166743 12.187346 # 2
236 3 6.649151 2.633803 16.346783 # 3
237 3 4.585200 2.985260 12.200030 # 3
238 3 4.630274 4.387236 14.775236 # 3
239 3 6.603129 1.248273 13.683167 # 3
240 3 8.302241 6.207563 12.153816 # 3
241 3 6.616129 3.456261 9.817594 # 3
242 4 11.842496 7.105181 10.048539 # 4
243 4 3.074328 2.577202 12.005123 # 4
244 4 4.403264 6.013677 15.056797 # 4
245 4 3.319133 3.535605 15.212140 # 4
246 4 7.917750 2.039479 13.322116 # 4
247 4 9.529126 6.246490 11.052326 # 4
248 4 5.328871 3.209320 10.796137 # 4
249 4 6.700440 4.955711 9.218060 # 4
250 4 8.376383 4.762747 12.782734 # 4
251 4 6.482786 1.324868 15.358569 # 4
252 4 4.849555 4.351402 13.134743 # 4
253 4 6.941369 6.618172 11.456703 # 4
254 4 7.937728 3.012988 10.587667 # 4
255 4 5.885630 3.882495 15.625181 # 4
256 4 5.211962 1.712868 13.022597 # 4
257 1 -2.793227 -11.590455 19.390791 # 1
258 1 -4.461162 -8.040316 25.993074 # 1
259 1 2.863149 -5.939431 22.289248 # 1
260 2 -0.759019 -12.452719 25.297844 # 2
261 2 -2.925198 -9.022676 23.072762 # 2
262 3 -1.015154 -8.527605 18.805071 # 3
263 3 1.080528 -8.864845 22.784554 # 3
264 3 1.010800 -10.337527 20.233454 # 3
265 3 -0.936956 -7.134443 21.419333 # 3
266 3 -2.882326 -12.199636 23.036974 # 3
267 3 -0.885914 -9.299836 25.246105 # 3
268 4 -6.423412 -13.084854 25.249115 # 4
269 4 2.622539 -8.515070 23.117472 # 4
270 4 1.026347 -11.923553 19.963449 # 4
271 4 -0.972042 -5.541617 21.748112 # 4
272 4 -0.583639 -8.382686 26.550411 # 4
273 4 2.343524 -9.598490 19.745941 # 4
274 4 -2.121092 -7.881165 22.072615 # 4
275 4 -4.241698 -12.453859 24.028826 # 4
276 4 0.341807 -9.153324 24.180658 # 4
277 4 -0.956080 -10.744079 25.879169 # 4
278 4 -2.751159 -10.690683 22.514296 # 4
279 4 -0.917041 -7.250474 19.794161 # 4
280 4 0.904031 -10.254466 21.863901 # 4
281 4 -1.576704 -12.745975 23.728184 # 4
282 4 -2.230112 -8.791151 24.645565 # 4
283 4 -0.316178 -9.874324 19.482965 # 4
284 4 0.541092 -7.598307 21.865662 # 4
285 1 4.705919 1.599435 22.246679 # 1
286 2 2.627127 2.502059 16.388350 # 2
287 2 4.916097 -0.845142 18.642191 # 2
288 3 3.014143 -1.333904 22.826118 # 3
289 3 0.961178 -0.986401 18.804697 # 3
290 3 0.974298 0.385704 21.362946 # 3
291 3 2.942849 -2.814578 20.298756 # 3
292 3 4.693841 2.135289 18.733992 # 3
293 3 2.897939 -0.500312 16.372278 # 3
294 4 8.154882 3.004842 16.631607 # 4
295 4 -0.600522 -1.318167 18.440506 # 4
296 4 0.952726 1.968436 21.664095 # 4
297 4 -0.249776 -0.317743 21.982702 # 4
298 4 4.155604 -2.040082 19.632793 # 4
299 4 6.020635 2.360994 17.768009 # 4
300 4 1.828739 -0.919823 17.433451 # 4
301 4 2.602895 0.911341 15.742978 # 4
302 4 4.696575 0.695508 19.420307 # 4
303 4 2.900818 -2.668844 21.922924 # 4
304 4 1.002965 0.362955 19.707264 # 4
305 4 3.458400 2.611076 17.899870 # 4
306 4 4.352871 -0.597505 17.043144 # 4
307 4 2.411065 -0.116492 22.021378 # 4
308 4 1.536930 -2.259788 19.662802 # 4
309 1 -6.480127 -15.778879 26.197769 # 1
310 1 6.557068 3.837214 6.149562 # 1
311 1 13.942913 6.307073 2.372900 # 1
312 2 10.316872 -0.519208 5.448808 # 2
313 2 8.161365 2.797195 3.132179 # 2
314 3 -4.976792 -12.369095 25.455702 # 3
315 3 12.023047 2.913099 3.192080 # 3
316 3 8.307435 -0.219878 3.204637 # 3
317 3 10.181136 2.659801 5.504443 # 3
318 4 4.809868 -0.934087 5.180313 # 4
319 4 13.599977 2.835812 3.190950 # 4
320 4 -2.239976 -15.965960 26.622995 # 4
321 4 9.495787 6.573231 1.948934 # 4
322 4 10.225673 3.561577 6.887613 # 4
323 4 -1.410190 -13.462650 26.536720 # 4
324 4 8.338487 4.109178 1.912013 # 4
325 4 7.168687 -0.124547 4.369172 # 4
326 4 11.525223 3.103651 4.731226 # 4
327 4 10.165518 1.119109 5.873780 # 4
328 4 8.764544 1.237577 2.566549 # 4
329 4 -4.761055 -10.853958 26.174789 # 4
330 4 11.302281 1.666305 2.420750 # 4
331 4 9.649115 -1.000642 3.845741 # 4
332 4 8.883145 3.190227 4.660022 # 4
333 4 -4.216483 -13.424312 26.518890 # 4
334 4 11.566198 4.218774 2.282859 # 4
335 1 15.855308 13.793864 2.382949 # 1
336 2 -0.992041 -1.476392 23.061331 # 2
337 2 1.245797 -4.933039 25.252005 # 2
338 3 13.984479 10.453255 3.190950 # 3
339 3 -2.886574 -4.753847 25.462111 # 3
340 3 1.046655 -1.772260 25.295210 # 3
341 3 -0.802375 -4.551068 22.976313 # 3
342 4 4.500606 -0.907746 23.299814 # 4
343 4 -4.317274 -5.303547 24.995317 # 4
344 4 11.466318 14.120789 1.904602 # 4
345 4 10.702234 11.637327 2.149867 # 4
346 4 0.384604 -5.989276 26.361532 # 4
347 4 2.141992 -1.501091 24.126404 # 4
348 4 -2.016327 -4.777886 24.045906 # 4
349 4 -0.828245 -3.090622 22.341370 # 4
350 4 1.149796 -3.304314 25.818382 # 4
351 4 13.524240 9.015775 2.551732 # 4
352 4 -2.764346 -3.283324 26.187723 # 4
353 4 -0.344035 -1.378451 24.679720 # 4
354 4 0.574484 -4.989352 23.659109 # 4
355 4 13.563853 11.655198 2.200475 # 4
356 4 -2.303688 -5.927111 26.410509 # 4
357 1 4.664193 -3.605258 6.233952 # 1
358 1 2.748957 0.027180 12.890613 # 1
359 1 10.151363 2.132150 9.170588 # 1
360 2 6.619382 -4.386073 12.151930 # 2
361 2 4.352669 -0.992634 9.860167 # 2
362 3 6.305590 -0.461454 5.676115 # 3
363 3 8.318200 -0.940906 9.701552 # 3
364 3 8.327893 -2.325958 7.160255 # 3
365 3 6.345580 0.879205 8.283092 # 3
366 3 4.687933 -4.037694 9.821737 # 3
367 3 6.411916 -1.363340 12.190861 # 3
368 4 1.090921 -4.921846 11.880795 # 4
369 4 9.818493 -0.501175 10.035855 # 4
370 4 8.291541 -3.941813 6.914489 # 4
371 4 6.284847 2.445337 8.548702 # 4
372 4 6.820809 -0.347668 13.395708 # 4
373 4 9.590854 -1.578869 6.594880 # 4
374 4 5.061637 0.201603 8.915779 # 4
375 4 3.533530 -4.407113 10.917197 # 4
376 4 7.604913 -1.289678 11.106202 # 4
377 4 6.475609 -2.801732 12.871899 # 4
378 4 4.580369 -2.581156 9.215171 # 4
379 4 6.311210 0.775159 6.666586 # 4
380 4 8.136061 -2.209414 8.785175 # 4
381 4 6.106701 -4.422444 10.486196 # 4
382 4 4.945583 -0.947252 11.483328 # 4
383 4 6.920156 -1.691350 6.505715 # 4
384 4 7.801974 0.365047 8.813807 # 4
385 1 12.111330 9.713765 9.244681 # 1
386 2 10.103617 10.392130 3.159302 # 2
387 2 12.235373 6.958477 5.462499 # 2
388 3 10.303620 6.601985 9.751035 # 3
389 3 8.214521 7.043411 5.670336 # 3
390 3 8.311255 8.473766 8.324285 # 3
391 3 10.229899 5.190351 7.132627 # 3
392 3 11.985719 10.178381 5.524410 # 3
393 3 10.190076 7.358735 3.212298 # 3
394 4 15.551142 10.365811 3.499634 # 4
395 4 6.753129 6.611518 5.193625 # 4
396 4 8.406224 10.025311 8.604461 # 4
397 4 6.985959 7.756260 8.917665 # 4
398 4 11.499498 5.847692 6.506216 # 4
399 4 13.260866 10.612686 4.607026 # 4
400 4 9.051852 7.377699 4.354852 # 4
401 4 10.703288 8.873123 2.629718 # 4
402 4 11.957683 8.626746 5.831335 # 4
403 4 10.251488 5.320572 8.740091 # 4
404 4 8.250441 8.360399 6.642097 # 4
405 4 10.649302 10.596126 4.874267 # 4
406 4 11.487408 6.653497 3.837200 # 4
407 4 9.733521 7.815380 8.798110 # 4
408 4 8.845156 5.766819 6.533721 # 4
409 5 -7.272909 -7.385427 26.284426 # 5
410 5 -9.285500 -14.852834 26.242231 # 5
411 5 2.233301 5.430360 2.275950 # 5
412 5 -8.212260 -13.172822 27.601038 # 5
413 5 1.630184 3.771560 1.100996 # 5
414 5 -13.110775 -10.724524 26.045315 # 5
415 5 3.441989 1.374056 2.239657 # 5
416 5 -10.230809 -13.316466 26.627270 # 5
417 5 4.376621 4.892887 2.930112 # 5
418 5 4.059535 12.990650 2.153007 # 5
419 5 4.084984 11.185759 1.504118 # 5
420 5 -6.074130 -5.968902 27.210976 # 5
421 5 5.225363 8.893936 2.448378 # 5
422 5 -9.911860 -3.330205 26.919123 # 5
423 5 6.026747 12.594228 2.917556 # 5
424 5 -8.236515 -5.721610 26.534586 # 5
425 5 -0.247204 -7.485431 26.389917 # 5
426 5 -2.159732 -14.985495 26.429350 # 5
427 5 9.416971 5.615016 1.897570 # 5
428 5 -1.072795 -13.296755 27.456367 # 5
429 5 8.550408 3.778262 1.036824 # 5
430 5 -4.066386 -10.956942 26.834852 # 5
431 5 10.325117 1.549832 2.292403 # 5
432 5 -3.236198 -13.487401 26.502939 # 5
433 5 11.251450 4.939468 2.819853 # 5
434 5 11.142015 13.199103 1.973172 # 5
435 5 11.608975 11.427813 1.981458 # 5
436 5 0.682043 -5.891973 27.293734 # 5
437 5 12.553471 8.984343 2.390105 # 5
438 5 -3.147799 -3.373313 27.100718 # 5
439 5 13.299644 12.450972 2.772632 # 5
440 5 -1.380604 -6.125019 26.319466 # 5
441 1 8.007895 -7.540381 12.883580 # 1
442 1 6.298687 -4.070099 19.373337 # 1
443 1 13.666352 -1.876966 15.684959 # 1
444 2 10.212678 -8.478942 18.712013 # 2
445 2 7.904716 -5.125705 16.409451 # 2
446 3 9.788829 -4.499875 12.306273 # 3
447 3 11.890797 -4.974730 16.249960 # 3
448 3 11.838954 -6.357180 13.709665 # 3
449 3 9.940343 -3.150572 14.818060 # 3
450 3 8.120566 -8.087665 16.347914 # 3
451 3 9.921937 -5.457411 18.675972 # 3
452 4 4.628289 -8.956923 18.329992 # 4
453 4 13.461531 -4.539990 16.563288 # 4
454 4 12.107243 -7.929152 13.322995 # 4
455 4 9.635380 -1.526698 15.131262 # 4
456 4 10.205607 -4.447792 19.922886 # 4
457 4 13.057557 -5.557083 13.153834 # 4
458 4 8.708433 -4.032581 15.372506 # 4
459 4 6.959190 -8.419185 17.464851 # 4
460 4 11.041189 -5.064322 17.596834 # 4
461 4 10.073937 -6.901305 19.389406 # 4
462 4 8.005392 -6.664009 15.671523 # 4
463 4 9.997521 -3.137650 13.177065 # 4
464 4 11.760682 -6.358939 15.357191 # 4
465 4 9.534902 -8.505772 17.102539 # 4
466 4 8.569425 -5.209010 17.956886 # 4
467 4 10.408228 -5.808345 13.092799 # 4
468 4 11.369391 -3.736467 15.304697 # 4
469 1 15.597604 5.658762 15.709069 # 1
470 2 13.495356 6.539884 9.891561 # 2
471 2 15.747448 3.165197 12.185209 # 2
472 3 13.862063 2.651355 16.313375 # 3
473 3 11.784938 3.007890 12.233811 # 3
474 3 11.882674 4.409182 14.806757 # 3
475 3 13.784547 1.214343 13.710669 # 3
476 3 15.529130 6.145232 12.181067 # 3
477 3 13.714711 3.542253 9.816337 # 3
478 4 18.999731 7.032339 10.172867 # 4
479 4 10.279155 2.637170 12.000602 # 4
480 4 11.779873 6.042380 15.133402 # 4
481 4 10.557254 3.617008 15.276065 # 4
482 4 15.100113 1.979524 13.256937 # 4
483 4 16.624184 6.326802 11.053958 # 4
484 4 12.413880 3.283979 10.771398 # 4
485 4 13.645373 4.995175 9.078158 # 4
486 4 15.480783 4.735448 12.959806 # 4
487 4 13.635350 1.379831 15.365979 # 4
488 4 12.007140 4.302009 13.209465 # 4
489 4 14.102144 6.487948 11.512712 # 4
490 4 15.099752 3.298482 10.565566 # 4
491 4 13.248730 3.975467 15.467578 # 4
492 4 12.481864 1.688519 12.890863 # 4
493 1 4.392128 -11.634717 19.402723 # 1
494 1 2.775120 -8.276963 26.281282 # 1
495 1 10.054748 -5.878516 22.252960 # 1
496 2 6.495608 -12.440747 25.314798 # 2
497 2 4.259381 -8.983954 23.049025 # 2
498 3 6.155627 -8.635298 18.795528 # 3
499 3 8.227482 -8.959571 22.819839 # 3
500 3 8.171239 -10.404494 20.272137 # 3
501 3 6.222398 -7.140096 21.337330 # 3
502 3 4.426071 -12.126129 22.958109 # 3
503 3 6.264153 -9.366665 25.262932 # 3
504 4 0.868619 -13.152365 25.201269 # 4
505 4 9.750499 -8.619240 23.131536 # 4
506 4 8.164240 -11.990041 19.945118 # 4
507 4 6.268442 -5.548383 21.594273 # 4
508 4 6.755781 -8.435664 26.529062 # 4
509 4 9.459915 -9.753151 19.656902 # 4
510 4 4.977100 -7.780334 22.000156 # 4
511 4 3.089224 -12.552328 23.846483 # 4
512 4 7.331638 -9.031403 24.150896 # 4
513 4 6.173499 -10.841851 25.809721 # 4
514 4 4.512064 -10.605978 22.459539 # 4
515 4 6.189027 -7.247478 19.713163 # 4
516 4 8.206095 -10.232535 21.864651 # 4
517 4 5.660020 -12.669890 23.801773 # 4
518 4 4.858335 -8.771634 24.723555 # 4
519 4 6.706893 -9.853442 19.689299 # 4
520 4 7.620216 -7.768141 21.906097 # 4
521 1 11.892510 1.589281 22.302685 # 1
522 2 9.830956 2.452756 16.343893 # 2
523 2 12.120052 -0.888296 18.656384 # 2
524 3 10.263885 -1.448116 22.836292 # 3
525 3 8.103710 -1.050553 18.799675 # 3
526 3 8.224176 0.421600 21.351141 # 3
527 3 10.076417 -2.854902 20.257444 # 3
528 3 11.850610 2.122284 18.752331 # 3
529 3 10.093701 -0.534812 16.358459 # 3
530 4 15.370024 2.940603 16.556635 # 4
531 4 6.570107 -1.290703 18.456457 # 4
532 4 8.106071 2.031555 21.555595 # 4
533 4 6.937353 -0.391913 21.882233 # 4
534 4 11.345754 -2.032619 19.624378 # 4
535 4 13.113230 2.419779 17.741510 # 4
536 4 8.907643 -0.758877 17.505161 # 4
537 4 10.052765 0.843701 15.629957 # 4
538 4 11.908175 0.652734 19.400089 # 4
539 4 10.066343 -2.706676 21.847696 # 4
540 4 8.210465 0.305830 19.693447 # 4
541 4 10.493404 2.383326 18.021687 # 4
542 4 11.458396 -0.932641 17.027319 # 4
543 4 9.604291 -0.131072 22.044111 # 4
544 4 8.621127 -2.359907 19.603405 # 4
545 1 0.734954 -15.713141 26.014669 # 1
546 1 13.814260 3.981132 6.301268 # 1
547 1 21.104639 6.382677 2.386969 # 1
548 2 17.497068 -0.553510 5.379235 # 2
549 2 15.287926 2.794785 3.136445 # 2
550 3 2.353762 -12.450863 25.282522 # 3
551 3 19.261150 2.891851 3.169976 # 3
552 3 15.489000 -0.219073 3.187057 # 3
553 3 17.209703 2.644573 5.462749 # 3
554 4 11.963373 -0.986538 5.278015 # 4
555 4 20.847332 2.902893 3.535174 # 4
556 4 4.670256 -15.942526 26.673103 # 4
557 4 16.836746 6.544144 1.844447 # 4
558 4 17.347548 3.508748 6.888743 # 4
559 4 5.800167 -13.451722 26.501560 # 4
560 4 15.902864 4.079212 2.102646 # 4
561 4 14.257290 -0.209534 4.314038 # 4
562 4 18.468769 3.114830 4.582911 # 4
563 4 17.291246 1.098660 5.800817 # 4
564 4 15.887389 1.231654 2.542312 # 4
565 4 2.453271 -10.931139 25.861460 # 4
566 4 18.800667 1.380059 2.602591 # 4
567 4 16.816854 -0.946521 3.749670 # 4
568 4 15.921898 3.113405 4.682751 # 4
569 4 3.145878 -13.416718 26.342192 # 4
570 4 18.955105 4.170190 2.169834 # 4
571 1 23.059904 13.836180 2.343516 # 1
572 2 6.220765 -1.479524 23.025415 # 2
573 2 8.400425 -4.823203 25.287416 # 2
574 3 21.168186 10.375325 3.136445 # 3
575 3 4.303121 -4.836773 25.256151 # 3
576 3 8.249843 -1.765880 25.309521 # 3
577 3 6.414157 -4.636329 22.959612 # 3
578 4 11.753875 -1.063667 23.365871 # 4
579 4 2.900098 -5.548553 24.971327 # 4
580 4 18.579779 13.910604 2.159662 # 4
581 4 17.613594 11.548506 1.997784 # 4
582 4 7.729805 -5.996312 26.461245 # 4
583 4 9.410868 -1.838076 24.124899 # 4
584 4 5.167344 -4.968649 23.925348 # 4
585 4 6.303636 -3.130486 22.482519 # 4
586 4 8.062895 -3.266210 25.838728 # 4
587 4 20.572992 8.991514 2.396134 # 4
588 4 4.109412 -3.307724 25.710758 # 4
589 4 6.918230 -1.219312 24.520739 # 4
590 4 7.779284 -5.119316 23.713993 # 4
591 4 20.547522 11.703209 2.386714 # 4
592 4 5.077310 -5.552704 26.454216 # 4
593 1 11.790440 -3.653514 6.227047 # 1
594 1 9.962631 -0.001754 12.883075 # 1
595 1 17.239536 2.153730 9.187164 # 1
596 2 13.837069 -4.367330 12.134099 # 2
597 2 11.520534 -1.032550 9.945686 # 2
598 3 13.459718 -0.520631 5.670464 # 3
599 3 15.563776 -0.914709 9.683596 # 3
600 3 15.528424 -2.352461 7.136646 # 3
601 3 13.483983 0.933533 8.313483 # 3
602 3 11.818368 -4.031533 9.788959 # 3
603 3 13.575012 -1.408068 12.212337 # 3
604 4 8.279675 -4.836917 12.072690 # 4
605 4 17.059378 -0.473506 10.011494 # 4
606 4 15.495308 -3.971513 6.866138 # 4
607 4 13.661672 2.520892 8.495956 # 4
608 4 13.924238 -0.411928 13.527319 # 4
609 4 16.786190 -1.632811 6.562854 # 4
610 4 12.245671 0.269643 9.053169 # 4
611 4 10.607606 -4.284700 10.921217 # 4
612 4 14.738547 -1.158241 11.070033 # 4
613 4 13.545523 -2.840355 12.917110 # 4
614 4 11.735097 -2.636050 9.092100 # 4
615 4 13.383862 0.715350 6.688189 # 4
616 4 15.520246 -2.300525 8.758176 # 4
617 4 13.205149 -4.334017 10.465978 # 4
618 4 12.172493 -1.096719 11.540340 # 4
619 4 14.125936 -1.702107 6.567001 # 4
620 4 14.956236 0.251121 8.738583 # 4
621 1 19.229765 9.738436 9.198845 # 1
622 2 17.246218 10.325418 3.230761 # 2
623 2 19.420431 7.006458 5.396691 # 2
624 3 17.496677 6.621176 9.699670 # 3
625 3 15.411429 7.087434 5.651122 # 3
626 3 15.444082 8.445885 8.287992 # 3
627 3 17.441717 5.157584 7.151340 # 3
628 3 19.275681 10.191319 5.522527 # 3
629 3 17.360727 7.384571 3.140716 # 3
630 4 22.785547 10.446090 2.994411 # 4
631 4 13.948007 6.688015 5.192368 # 4
632 4 15.531694 10.056140 8.509894 # 4
633 4 14.109964 7.876645 8.864921 # 4
634 4 18.797213 5.785745 6.555069 # 4
635 4 20.790949 10.533733 4.773926 # 4
636 4 16.300123 7.483767 4.345436 # 4
637 4 17.813707 8.812475 2.621806 # 4
638 4 19.139690 8.643332 5.916353 # 4
639 4 17.289991 5.319805 8.745743 # 4
640 4 15.399814 8.344609 6.600030 # 4
641 4 18.068279 10.797589 4.639048 # 4
642 4 18.684319 6.684165 3.840089 # 4
643 4 16.886288 7.864571 8.814937 # 4
644 4 16.053806 5.784894 6.436644 # 4
645 1 15.253736 -7.551700 12.865746 # 1
646 1 13.525949 -4.087800 19.467897 # 1
647 1 20.832415 -1.912798 15.658087 # 1
648 2 17.370087 -8.450035 18.710135 # 2
649 2 15.119218 -5.109831 16.384083 # 2
650 3 17.002409 -4.541456 12.231050 # 3
651 3 19.110790 -4.982338 16.273569 # 3
652 3 19.102467 -6.358208 13.729506 # 3
653 3 17.047703 -3.097916 14.780132 # 3
654 3 15.372382 -8.026148 16.373535 # 3
655 3 17.155308 -5.389634 18.721685 # 3
656 4 11.811577 -8.945967 18.367666 # 4
657 4 20.580004 -4.566722 16.680712 # 4
658 4 19.123085 -7.974169 13.428482 # 4
659 4 16.930567 -1.510711 15.107907 # 4
660 4 17.377590 -4.423643 20.025743 # 4
661 4 20.396658 -5.605357 13.231192 # 4
662 4 15.854249 -3.995864 15.344002 # 4
663 4 14.072929 -8.096170 17.478918 # 4
664 4 18.319178 -5.251803 17.601355 # 4
665 4 17.185148 -6.884391 19.352362 # 4
666 4 15.279020 -6.644762 15.682571 # 4
667 4 17.246008 -3.216272 13.102469 # 4
668 4 18.948805 -6.289363 15.379797 # 4
669 4 16.735550 -8.503764 17.115475 # 4
670 4 15.751601 -5.029284 18.004230 # 4
671 4 17.779623 -5.735317 13.025487 # 4
672 4 18.382010 -3.754154 15.476995 # 4
673 1 22.787327 5.638968 15.714474 # 1
674 2 20.642752 6.543822 9.915169 # 2
675 2 22.934193 3.200902 12.191366 # 2
676 3 21.024395 2.675141 16.357712 # 3
677 3 18.963636 3.075213 12.218867 # 3
678 3 19.059469 4.446146 14.867164 # 3
679 3 20.971994 1.234154 13.745708 # 3
680 3 22.686321 6.236475 12.207942 # 3
681 3 20.939434 3.560213 9.813952 # 3
682 4 26.139282 6.841539 10.082575 # 4
683 4 17.410292 2.791864 12.002361 # 4
684 4 18.940615 5.999389 15.120715 # 4
685 4 17.795628 3.700875 15.479382 # 4
686 4 22.361168 1.995521 13.318096 # 4
687 4 23.818939 6.487362 11.059108 # 4
688 4 19.574982 3.396222 10.683614 # 4
689 4 20.814810 5.010484 9.041866 # 4
690 4 22.748446 4.769559 12.787255 # 4
691 4 20.914949 1.367306 15.367484 # 4
692 4 19.268980 4.260216 13.255807 # 4
693 4 21.267054 6.513830 11.513719 # 4
694 4 22.269167 3.268094 10.570589 # 4
695 4 20.450556 4.033314 15.614882 # 4
696 4 19.689386 1.782203 12.984295 # 4
697 1 11.629300 -11.587323 19.412140 # 1
698 1 9.955243 -7.911152 26.153942 # 1
699 1 17.127766 -5.860091 22.303440 # 1
700 2 13.655187 -12.463673 25.196875 # 2
701 2 11.426025 -9.063431 23.133541 # 2
702 3 13.281005 -8.462581 18.815245 # 3
703 3 15.449812 -8.835970 22.863665 # 3
704 3 15.362936 -10.286098 20.256561 # 3
705 3 13.401030 -7.048185 21.444454 # 3
706 3 11.639441 -12.162643 22.972921 # 3
707 3 13.459452 -9.300025 25.324471 # 3
708 4 8.135983 -12.964255 25.201395 # 4
709 4 16.965830 -8.502761 23.059698 # 4
710 4 15.403526 -11.883704 19.998362 # 4
711 4 13.261504 -5.425692 21.732916 # 4
712 4 13.852584 -8.449031 26.618475 # 4
713 4 16.690615 -9.630333 19.762138 # 4
714 4 12.144581 -7.677461 22.199963 # 4
715 4 10.269202 -12.255616 23.935894 # 4
716 4 14.712438 -9.038438 24.277225 # 4
717 4 13.327188 -10.887413 25.731987 # 4
718 4 11.751345 -10.625546 22.544813 # 4
719 4 13.464315 -7.222999 19.845280 # 4
720 4 15.106499 -10.201048 21.914135 # 4
721 4 13.056355 -12.656652 23.652956 # 4
722 4 12.063651 -8.746509 24.757208 # 4
723 4 14.019383 -9.759144 19.513365 # 4
724 4 14.815683 -7.486197 22.089323 # 4
725 1 19.106350 1.601667 22.242405 # 1
726 2 17.010439 2.542995 16.403925 # 2
727 2 19.292957 -0.819082 18.731230 # 2
728 3 17.406876 -1.374367 22.833776 # 3
729 3 15.290799 -1.006393 18.795782 # 3
730 3 15.362000 0.422288 21.368349 # 3
731 3 17.288200 -2.767101 20.267363 # 3
732 3 18.986658 2.190907 18.770033 # 3
733 3 17.229321 -0.501109 16.339499 # 3
734 4 22.551910 2.960796 16.770880 # 4
735 4 13.755118 -1.417335 18.484707 # 4
736 4 15.283388 1.976802 21.615620 # 4
737 4 14.091713 -0.265663 22.018488 # 4
738 4 18.589714 -2.069246 19.740664 # 4
739 4 20.207994 2.486990 17.733225 # 4
740 4 15.968230 -0.768262 17.371794 # 4
741 4 17.190802 0.942604 15.690364 # 4
742 4 19.106104 0.749090 19.404482 # 4
743 4 17.104265 -2.738796 21.879097 # 4
744 4 15.309299 0.349449 19.746571 # 4
745 4 17.676531 2.614935 18.036755 # 4
746 4 18.607357 -0.918463 17.096769 # 4
747 4 16.680658 -0.142868 21.976923 # 4
748 4 15.909662 -2.253029 19.608803 # 4
749 1 8.063017 -15.714463 26.346210 # 1
750 1 20.964382 3.940368 6.220015 # 1
751 1 28.351942 6.338819 2.362855 # 1
752 2 24.746510 -0.567612 5.470156 # 2
753 2 22.466763 2.880569 3.163950 # 2
754 3 9.589808 -12.282093 25.366163 # 3
755 3 26.414734 2.942769 3.118365 # 3
756 3 22.676737 -0.148007 3.247086 # 3
757 3 24.564049 2.645373 5.514364 # 3
758 4 19.273508 -0.890167 5.150798 # 4
759 4 27.995672 2.857285 3.249470 # 4
760 4 11.948923 -15.939569 26.587082 # 4
761 4 23.875214 6.517047 2.003937 # 4