LAMMPS data file. CGCMM style. atom_style atomic generated by VMD/TopoTools v1.8 on Wed Aug 27 18:02:52 CEST 2025
 19984 atoms
 5 atom types
 0.757146 52.473146  xlo xhi
 -20.927279 31.492535  ylo yhi
 -31.017521 120.322466  zlo zhi
 -0.137237 1.073137 -26.901136 xy xz yz

 Masses

1 39.0983
2 26.981538
3 28.0855
4 15.9994
5 2

 Atoms # atomic

1 4 1.628763 -1.359513 10.828970 # 4
2 4 8.244162 -2.084854 15.249305 # 4
3 1 51.541176 -0.270901 8.818263 # 1
4 1 12.489755 4.633233 8.399808 # 1
5 1 6.102394 0.398065 4.810629 # 1
6 1 6.243177 3.883093 12.574522 # 1
7 2 10.325026 -0.178181 11.626681 # 2
8 2 1.993039 4.524107 5.665702 # 2
9 2 3.691719 0.536928 7.386587 # 2
10 2 8.622031 3.803093 9.884454 # 2
11 3 2.187588 -0.105846 11.673597 # 3
12 3 10.194027 4.386847 5.648148 # 3
13 3 8.501084 0.586083 7.366913 # 3
14 3 3.934614 3.679281 9.872650 # 3
15 3 10.928642 1.475710 6.096416 # 3
16 3 1.386630 2.902533 11.138610 # 3
17 3 4.703413 0.764142 10.490874 # 3
18 3 7.694595 3.493345 6.848727 # 3
19 3 1.129473 1.504871 6.092785 # 3
20 3 11.266780 2.755910 11.030706 # 3
21 3 7.734757 0.911415 10.508429 # 3
22 3 4.647938 3.458062 6.746420 # 3
23 4 11.096197 4.359671 14.868988 # 4
24 4 4.383492 5.045259 10.533100 # 4
25 4 12.448111 1.102880 6.261375 # 4
26 4 51.612587 3.328041 10.739224 # 4
27 4 6.217341 0.346986 10.829421 # 4
28 4 6.187085 3.858824 6.503067 # 4
29 4 10.293393 0.871810 4.706964 # 4
30 4 1.785827 3.563504 12.548191 # 4
31 4 4.227127 0.254543 9.067524 # 4
32 4 8.151965 4.057580 8.280552 # 4
33 4 1.575875 0.954431 4.556226 # 4
34 4 10.959086 3.156656 12.581030 # 4
35 4 8.145535 0.480326 8.956287 # 4
36 4 4.261346 3.938681 8.300077 # 4
37 4 8.607146 0.121853 11.584609 # 4
38 4 3.694903 4.117720 5.660254 # 4
39 4 1.964442 0.726434 7.264155 # 4
40 4 10.365870 3.609764 10.046391 # 4
41 4 3.830673 -0.040300 11.600346 # 4
42 4 8.588403 4.166004 5.584733 # 4
43 4 10.191224 0.694039 7.223748 # 4
44 4 2.290662 3.502189 9.939393 # 4
45 4 11.144780 1.151969 10.818073 # 4
46 4 1.095643 3.157124 6.229442 # 4
47 4 4.646491 1.809664 6.655619 # 4
48 4 7.737126 2.495947 10.649177 # 4
49 4 1.497138 1.252219 11.054164 # 4
50 4 10.876270 3.037094 6.255322 # 4
51 4 7.817673 1.889584 6.729168 # 4
52 4 4.592278 2.376917 10.525229 # 4
53 1 51.703392 5.666398 13.215144 # 1
54 1 12.691074 10.515135 12.587841 # 1
55 1 6.232118 6.288716 8.827347 # 1
56 1 6.412000 9.733226 16.762856 # 1
57 2 10.552927 5.693235 15.849520 # 2
58 2 2.144569 10.353419 9.902161 # 2
59 2 3.893286 6.353678 11.504398 # 2
60 2 8.764901 9.659116 14.177973 # 2
61 3 2.345106 5.757249 15.899011 # 3
62 3 10.367346 10.261206 9.892176 # 3
63 3 8.601240 6.471127 11.664365 # 3
64 3 4.045992 9.620530 14.098668 # 3
65 3 11.116645 7.320116 10.499805 # 3
66 3 1.556276 8.704626 15.320589 # 3
67 3 4.812024 6.677546 14.651209 # 3
68 3 7.863389 9.471013 11.129680 # 3
69 3 1.266642 7.466089 10.514937 # 3
70 3 11.439591 8.608586 15.299098 # 3
71 3 7.828160 6.702516 14.709780 # 3
72 3 4.797051 9.373410 11.014360 # 3
73 4 11.432621 10.222169 19.185356 # 4
74 4 1.474877 5.855429 6.603403 # 4
75 4 4.541568 10.904670 14.893655 # 4
76 4 8.043419 5.286345 10.772821 # 4
77 4 12.676455 6.877546 10.825032 # 4
78 4 51.774471 9.105934 14.842959 # 4
79 4 6.309300 6.201814 14.993996 # 4
80 4 6.356130 9.851699 10.632985 # 4
81 4 10.670433 6.795399 9.058291 # 4
82 4 2.115955 9.220084 16.723661 # 4
83 4 4.422165 6.100132 13.212722 # 4
84 4 8.268491 10.100393 12.535327 # 4
85 4 1.470720 6.990427 8.966728 # 4
86 4 11.264217 9.118361 16.873335 # 4
87 4 8.335388 6.130751 13.234516 # 4
88 4 4.603412 9.886178 12.575884 # 4
89 4 8.743328 5.885637 15.753270 # 4
90 4 3.871730 10.089187 9.950137 # 4
91 4 2.110963 6.544686 11.472312 # 4
92 4 10.477367 9.482355 14.333397 # 4
93 4 3.943266 5.966810 15.827423 # 4
94 4 8.778811 10.114419 9.900496 # 4
95 4 10.211154 6.623413 11.645751 # 4
96 4 2.453259 9.308153 14.106385 # 4
97 4 11.247769 7.013159 15.127933 # 4
98 4 1.383677 9.055158 10.769944 # 4
99 4 4.692338 7.750138 10.793704 # 4
100 4 7.803576 8.262219 14.714471 # 4
101 4 1.670820 7.113726 15.242801 # 4
102 4 11.001285 8.914259 10.539302 # 4
103 4 8.050256 7.868664 11.108039 # 4
104 4 4.706964 8.316301 14.815718 # 4
105 4 7.790629 -0.628536 6.609005 # 4
106 1 13.643017 0.360789 33.928749 # 1
107 1 7.205260 -3.611406 30.205782 # 1
108 2 3.050641 0.439246 31.114883 # 2
109 2 4.885588 -3.547233 32.733921 # 2
110 3 11.231070 0.254864 31.113522 # 3
111 3 9.480909 -3.533511 33.006180 # 3
112 3 12.050024 -2.611166 31.625050 # 3
113 3 8.712036 -0.553195 32.527035 # 3
114 3 2.183725 -2.458434 31.680897 # 3
115 3 5.670742 -0.587985 32.345577 # 3
116 4 10.561270 5.648261 6.506698 # 4
117 4 13.545537 -3.010603 32.066509 # 4
118 4 7.245451 -0.063650 32.155190 # 4
119 4 11.793550 -3.116840 30.111498 # 4
120 4 1.505822 5.074768 4.089498 # 4
121 4 5.554569 -4.030169 34.333431 # 4
122 4 9.261998 -0.172286 34.030293 # 4
123 4 2.574878 -3.002495 30.170673 # 4
124 4 10.638938 4.786447 4.080716 # 4
125 4 9.294454 -3.775388 34.570122 # 4
126 4 5.167700 -0.148441 33.853989 # 4
127 4 4.772874 0.238626 31.317827 # 4
128 4 3.157815 -3.254791 32.689728 # 4
129 4 9.597918 0.156263 31.314653 # 4
130 4 11.073368 -3.388492 32.668079 # 4
131 4 2.138098 -0.867214 31.797874 # 4
132 4 5.688886 -2.122791 32.111755 # 4
133 4 11.990220 -0.989059 31.825722 # 4
134 4 8.754899 -2.205782 32.458027 # 4
135 1 51.241074 6.885650 4.872830 # 1
136 1 5.929995 11.137958 8.370902 # 1
137 2 10.078428 7.094548 7.379474 # 2
138 2 8.433205 11.116485 5.646177 # 2
139 3 1.989375 7.104505 7.403085 # 3
140 3 3.730453 10.963765 5.662522 # 3
141 3 1.181616 10.011372 6.868554 # 3
142 3 4.463898 8.015680 6.137279 # 3
143 3 11.089396 9.950350 6.731739 # 3
144 3 7.524034 8.112735 6.074320 # 3
145 4 10.918817 11.522924 10.729838 # 4
146 4 2.557985 1.796876 32.065300 # 4
147 4 4.199480 12.296423 6.405149 # 4
148 4 51.442932 10.357356 6.332051 # 4
149 4 6.021424 7.573405 6.501250 # 4
150 4 11.886629 2.624921 34.470695 # 4
151 4 1.457429 10.526367 8.343813 # 4
152 4 3.998909 7.571899 4.661560 # 4
153 4 7.974043 11.829476 4.136409 # 4
154 4 2.274495 3.006679 34.324806 # 4
155 4 10.965719 10.253437 8.362278 # 4
156 4 7.878216 7.472344 4.600572 # 4
157 4 4.274775 11.245466 4.130812 # 4
158 4 8.435277 7.458300 7.221930 # 4
159 4 10.091238 10.856339 5.912992 # 4
160 4 3.580930 7.289110 7.263700 # 4
161 4 2.097625 10.679437 5.754843 # 4
162 4 10.861000 8.388086 6.455091 # 4
163 4 7.466785 9.752139 6.051164 # 4
164 4 1.386812 8.413395 6.733254 # 4
165 4 4.468034 9.643682 6.344008 # 4
166 4 2.320874 -4.048931 27.801899 # 4
167 4 8.910368 -4.723615 32.120388 # 4
168 1 52.292145 -2.952355 25.992933 # 1
169 1 13.175462 1.817928 25.350191 # 1
170 1 6.777254 -2.284309 21.721813 # 1
171 1 6.931976 1.188932 29.633417 # 1
172 2 11.134137 -2.850702 28.509871 # 2
173 2 2.679941 1.767800 22.667538 # 2
174 2 4.393276 -2.202896 24.440792 # 2
175 2 9.354600 1.091334 26.900213 # 2
176 3 2.862697 -2.775253 28.580545 # 3
177 3 10.891360 1.693576 22.598225 # 3
178 3 9.188704 -2.132427 24.425655 # 3
179 3 4.634261 1.037417 26.860567 # 3
180 3 11.662050 -1.300224 23.252314 # 3
181 3 2.113595 0.152160 28.092623 # 3
182 3 5.424234 -1.893403 27.377689 # 3
183 3 8.374560 0.804391 23.840879 # 3
184 3 1.785285 -1.215490 23.293177 # 3
185 3 11.945152 0.026494 27.992739 # 3
186 3 8.427117 -1.896615 27.466831 # 3
187 3 5.361847 0.712358 23.745531 # 3
188 4 11.800314 1.600311 31.833443 # 4
189 4 5.118283 2.185561 27.860922 # 4
190 4 13.215599 -1.726433 23.575729 # 4
191 4 0.632888 0.752446 27.805229 # 4
192 4 6.927893 -2.452727 27.929478 # 4
193 4 6.866215 1.255318 23.465399 # 4
194 4 11.216051 -1.686048 21.780834 # 4
195 4 2.659569 0.681726 29.505081 # 4
196 4 4.969355 -2.507185 25.965691 # 4
197 4 8.741529 1.341668 25.269529 # 4
198 4 2.042691 -1.752003 21.725449 # 4
199 4 11.470608 0.378014 29.497965 # 4
200 4 8.711068 -2.357660 25.954344 # 4
201 4 5.053609 1.222360 25.309933 # 4
202 4 9.393950 -2.549873 28.574791 # 4
203 4 4.421358 1.563199 22.755163 # 4
204 4 2.625546 -2.003792 24.351650 # 4
205 4 11.129302 0.799720 26.912319 # 4
206 4 4.439760 -2.485691 28.513044 # 4
207 4 9.293155 1.422263 22.572796 # 4
208 4 10.815361 -1.997920 24.460466 # 4
209 4 2.991044 0.790323 26.915350 # 4
210 4 11.996365 -1.561970 27.702772 # 4
211 4 1.829784 0.408689 23.338280 # 4
212 4 5.197020 -0.893494 23.607058 # 4
213 4 8.470903 -0.236631 27.620441 # 4
214 4 1.986733 -1.457072 28.091713 # 4
215 4 11.587456 0.326296 23.329954 # 4
216 4 8.438013 -0.799993 23.713905 # 4
217 4 5.362112 -0.285425 27.446102 # 4
218 1 0.771604 2.890001 30.116495 # 1
219 1 13.395812 7.688677 29.627211 # 1
220 1 6.957978 3.553001 25.992022 # 1
221 1 7.142700 6.807018 34.036049 # 1
222 2 11.312507 2.904798 32.845154 # 2
223 2 2.857762 7.704359 26.905508 # 2
224 2 4.666311 3.717937 28.574944 # 2
225 2 9.460342 7.003209 31.216284 # 2
226 3 3.017843 3.095681 32.863312 # 3
227 3 11.063107 7.544908 26.822573 # 3
228 3 9.264931 3.747537 28.653189 # 3
229 3 4.802469 6.846746 31.185858 # 3
230 3 11.802844 4.639473 27.382380 # 3
231 3 2.256860 6.048369 32.441978 # 3
232 3 5.591280 3.900151 31.713280 # 3
233 3 8.518875 6.655908 28.202196 # 3
234 3 1.941056 4.755620 27.466227 # 3
235 3 12.132029 5.884619 32.387955 # 3
236 3 8.622693 3.957839 31.799543 # 3
237 3 5.533491 6.600801 28.010897 # 3
238 4 2.316518 3.116615 23.648678 # 4
239 4 5.414541 8.111484 31.941952 # 4
240 4 8.809570 2.479352 27.784950 # 4
241 4 13.272605 4.174542 27.845488 # 4
242 4 0.784726 6.415133 32.130066 # 4
243 4 7.092523 3.400448 32.071507 # 4
244 4 7.050463 7.230272 27.806437 # 4
245 4 11.409449 4.111745 25.934210 # 4
246 4 2.585027 6.355797 34.051636 # 4
247 4 5.248365 3.576307 30.202759 # 4
248 4 8.969285 7.244314 29.615709 # 4
249 4 2.276845 4.238405 25.965691 # 4
250 4 11.783719 6.334860 33.947060 # 4
251 4 8.981514 3.449423 30.266319 # 4
252 4 5.159006 6.840906 29.578175 # 4
253 4 9.587644 3.263030 32.880569 # 4
254 4 4.546235 7.478765 27.084394 # 4
255 4 2.955113 4.044660 28.485649 # 4
256 4 11.175652 6.570548 31.317377 # 4
257 4 4.659483 3.281913 32.917950 # 4
258 4 9.490436 7.228031 27.034601 # 4
259 4 10.836256 4.058044 28.492920 # 4
260 4 3.156395 6.889369 31.407881 # 4
261 4 12.264379 4.242723 32.130825 # 4
262 4 1.968367 6.364897 27.583061 # 4
263 4 5.535084 5.065645 27.687033 # 4
264 4 8.637272 5.585269 31.895649 # 4
265 4 2.404069 4.454972 32.061211 # 4
266 4 11.825962 6.256708 27.467436 # 4
267 4 8.439102 5.033216 28.204767 # 4
268 4 5.420599 5.505070 31.969952 # 4
269 4 1.998681 -2.640177 19.240444 # 4
270 4 8.730421 -3.466486 23.582088 # 4
271 1 51.931812 -1.619764 17.390768 # 1
272 1 12.837045 3.205099 16.814314 # 1
273 1 6.501478 -0.912679 13.174286 # 1
274 1 6.522624 2.588689 21.027617 # 1
275 2 10.721062 -1.535743 20.112770 # 2
276 2 2.379439 3.198524 14.133780 # 2
277 2 4.075254 -0.801020 15.864655 # 2
278 2 8.997307 2.480605 18.466946 # 2
279 3 2.508134 -1.437516 20.194794 # 3
280 3 10.570639 3.017479 14.124850 # 3
281 3 8.825815 -0.737974 15.867985 # 3
282 3 4.290807 2.408326 18.304407 # 3
283 3 11.354086 0.082219 14.690255 # 3
284 3 1.720194 1.498526 19.613499 # 3
285 3 5.010260 -0.537227 18.925653 # 3
286 3 8.016742 2.133489 15.343592 # 3
287 3 1.452801 0.167019 14.727789 # 3
288 3 11.590261 1.384399 19.535101 # 3
289 3 8.058709 -0.471480 18.985741 # 3
290 3 4.952337 2.122918 15.288048 # 3
291 4 11.423289 2.922929 23.424238 # 4
292 4 4.851146 3.665284 19.226671 # 4
293 4 12.838175 -0.252406 15.126873 # 4
294 4 51.966469 2.027121 19.184147 # 4
295 4 6.513198 -0.921497 19.443390 # 4
296 4 6.471572 2.520638 14.872168 # 4
297 4 11.004291 -0.396558 13.261604 # 4
298 4 2.094664 2.071865 21.071655 # 4
299 4 4.637811 -1.129396 17.475517 # 4
300 4 8.417266 2.578883 16.804928 # 4
301 4 1.754674 -0.375197 13.215749 # 4
302 4 11.451060 1.951317 21.073324 # 4
303 4 8.216764 -0.785578 17.395910 # 4
304 4 4.613082 2.717607 16.765882 # 4
305 4 8.987951 -1.285050 19.930103 # 4
306 4 4.090179 2.869625 14.154514 # 4
307 4 2.326185 -0.693464 15.752057 # 4
308 4 10.729968 2.207624 18.502508 # 4
309 4 4.081882 -1.112910 20.149546 # 4
310 4 8.968202 2.803509 14.209450 # 4
311 4 10.427385 -0.573208 15.882968 # 4
312 4 2.718856 2.095807 18.457712 # 4
313 4 11.591870 -0.195509 19.489250 # 4
314 4 1.593077 1.768002 14.836149 # 4
315 4 4.890962 0.532272 15.120062 # 4
316 4 8.137309 1.103904 19.224550 # 4
317 4 1.821066 -0.129301 19.534651 # 4
318 4 11.277343 1.762604 14.847348 # 4
319 4 8.104017 0.507665 15.096000 # 4
320 4 5.060916 1.088761 18.867390 # 4
321 1 52.096958 4.264590 21.724844 # 1
322 1 13.052390 9.061852 21.056528 # 1
323 1 6.595534 4.867864 17.415281 # 1
324 1 6.754061 8.435246 25.345194 # 1
325 2 10.858796 4.319916 24.302164 # 2
326 2 2.545299 9.029432 18.353592 # 2
327 2 4.255316 5.005898 20.132742 # 2
328 2 9.166816 8.294433 22.650742 # 2
329 3 2.687336 4.447473 24.424139 # 3
330 3 10.770657 8.956253 18.365093 # 3
331 3 8.972940 5.108807 20.112923 # 3
332 3 4.424291 8.241575 22.545860 # 3
333 3 11.568734 6.015196 18.919754 # 3
334 3 1.935330 7.433656 23.847988 # 3
335 3 5.194788 5.309372 23.192842 # 3
336 3 8.203402 8.039489 19.592157 # 3
337 3 1.633314 6.123609 18.969547 # 3
338 3 11.752775 7.271904 23.706942 # 3
339 3 8.183100 5.433756 23.217964 # 3
340 3 5.174370 7.945109 19.511189 # 3
341 4 11.494010 8.841256 27.647684 # 4
342 4 1.811390 4.433295 15.161678 # 4
343 4 4.910289 9.500339 23.508083 # 4
344 4 8.342857 3.914646 19.277979 # 4
345 4 13.050010 5.539866 19.375898 # 4
346 4 52.124710 7.772566 23.396698 # 4
347 4 6.742404 4.839497 23.585569 # 4
348 4 6.627382 8.561127 19.154181 # 4
349 4 11.289402 5.582974 17.466888 # 4
350 4 2.324506 8.093915 25.264532 # 4
351 4 4.834404 4.626839 21.799002 # 4
352 4 8.592220 8.560197 21.010513 # 4
353 4 1.989600 5.604971 17.465527 # 4
354 4 11.306814 7.794363 25.206873 # 4
355 4 8.566001 5.058838 21.625257 # 4
356 4 4.851697 8.474133 21.048500 # 4
357 4 9.167531 4.664273 24.196524 # 4
358 4 4.259830 8.696189 18.442125 # 4
359 4 2.531278 5.275444 20.022717 # 4
360 4 10.820469 7.958468 22.577639 # 4
361 4 4.350260 4.639482 24.413549 # 4
362 4 9.133441 8.803432 18.478144 # 4
363 4 10.629119 5.343983 20.045874 # 4
364 4 2.846557 8.026349 22.629850 # 4
365 4 11.809966 5.708391 23.681215 # 4
366 4 1.728014 7.685384 19.106209 # 4
367 4 4.980451 6.362596 19.295687 # 4
368 4 8.173248 6.977253 23.402597 # 4
369 4 2.085080 5.817178 23.723892 # 4
370 4 11.480624 7.679620 19.134508 # 4
371 4 8.319404 6.441707 19.413883 # 4
372 4 5.086532 6.890624 23.219931 # 4
373 5 10.424422 -0.061504 4.530500 # 5
374 5 0.882247 0.492347 4.097671 # 5
375 5 1.942204 4.575680 3.371993 # 5
376 5 5.070425 -4.245543 35.178810 # 5
377 5 8.736121 0.595957 34.454197 # 5
378 5 9.910116 4.501583 3.556175 # 5
379 5 8.516101 -3.305003 34.978138 # 5
380 5 4.234944 -0.361457 34.154388 # 5
381 5 11.070006 2.656159 35.079990 # 5
382 5 3.503212 6.779020 4.530198 # 5
383 5 8.175797 11.553800 3.287394 # 5
384 5 1.711126 3.620310 34.754456 # 5
385 5 8.036373 6.531543 4.651722 # 5
386 5 3.954291 10.659337 3.510468 # 5
387 5 2.064080 7.111952 34.390781 # 5
388 5 10.889208 6.033475 34.439972 # 5
389 4 14.576674 -1.306371 10.848793 # 4
390 4 21.140244 -2.041152 15.075112 # 4
391 1 12.689499 -0.239238 8.795261 # 1
392 1 25.416431 4.611593 8.391789 # 1
393 1 19.005234 0.360435 4.820317 # 1
394 1 19.090530 3.970779 12.634455 # 1
395 2 23.284002 -0.193804 11.610188 # 2
396 2 14.858348 4.555275 5.676143 # 2
397 2 16.583700 0.509809 7.333014 # 2
398 2 21.575319 3.821566 9.943326 # 2
399 3 15.137774 -0.077669 11.690547 # 3
400 3 23.137281 4.380019 5.673874 # 3
401 3 21.394630 0.609172 7.418673 # 3
402 3 16.854504 3.743315 9.854492 # 3
403 3 23.906933 1.408885 6.070992 # 3
404 3 14.317153 2.884867 11.098505 # 3
405 3 17.640465 0.824524 10.423378 # 3
406 3 20.593462 3.512156 6.827537 # 3
407 3 14.018457 1.445594 6.090968 # 3
408 3 24.172789 2.766648 11.038121 # 3
409 3 20.686834 0.903827 10.522807 # 3
410 3 17.503799 3.476922 6.783346 # 3
411 4 23.951315 4.202396 14.981434 # 4
412 4 17.321609 5.011799 10.668851 # 4
413 4 25.403381 0.954424 6.428607 # 4
414 4 12.804268 3.219922 10.585157 # 4
415 4 19.179707 0.303161 10.789920 # 4
416 4 19.078346 4.011786 6.479758 # 4
417 4 23.412800 0.985358 4.625238 # 4
418 4 14.807957 3.474846 12.528819 # 4
419 4 17.204643 0.299679 8.981107 # 4
420 4 21.022070 4.031658 8.240297 # 4
421 4 14.554572 0.744490 4.693948 # 4
422 4 23.773373 3.338233 12.518828 # 4
423 4 21.081310 0.430262 9.014705 # 4
424 4 17.325693 3.900293 8.395420 # 4
425 4 21.529512 0.122436 11.629405 # 4
426 4 16.515327 4.436821 6.011663 # 4
427 4 14.827128 0.709863 7.265666 # 4
428 4 23.329302 3.570859 9.950894 # 4
429 4 16.755129 0.073209 11.670720 # 4
430 4 21.477804 4.079277 5.583980 # 4
431 4 23.072901 0.694507 7.293666 # 4
432 4 15.153439 3.599567 9.903523 # 4
433 4 24.147869 1.121497 10.982730 # 4
434 4 13.962711 3.105365 6.021351 # 4
435 4 17.243977 1.912846 6.570866 # 4
436 4 20.712961 2.528271 10.659014 # 4
437 4 14.526664 1.270254 10.984850 # 4
438 4 23.817396 3.013084 6.186915 # 4
439 4 20.601303 1.886764 6.806654 # 4
440 4 17.601942 2.473832 10.584554 # 4
441 1 12.909734 5.605606 13.177312 # 1
442 1 25.630806 10.510971 12.535476 # 1
443 1 19.205656 6.241143 8.856705 # 1
444 1 19.302273 9.815977 16.835806 # 1
445 2 23.503496 5.654619 15.811385 # 2
446 2 15.035529 10.354660 9.911393 # 2
447 2 16.806459 6.367308 11.578403 # 2
448 2 21.751812 9.719704 14.145886 # 2
449 3 15.247286 5.773669 15.896286 # 3
450 3 23.293266 10.299162 9.816957 # 3
451 3 21.571089 6.443336 11.660278 # 3
452 3 17.014351 9.621230 14.111834 # 3
453 3 24.055836 7.359740 10.375100 # 3
454 3 14.495251 8.715117 15.359784 # 3
455 3 17.750357 6.648947 14.628662 # 3
456 3 20.781597 9.424989 11.043872 # 3
457 3 14.178796 7.478908 10.491479 # 3
458 3 24.355133 8.644691 15.210110 # 3
459 3 20.835981 6.746770 14.735962 # 3
460 3 17.723738 9.326550 11.013450 # 3
461 4 24.195358 10.228243 19.118162 # 4
462 4 14.323278 5.899511 6.626410 # 4
463 4 17.563604 10.911462 14.875799 # 4
464 4 21.050171 5.204430 10.837594 # 4
465 4 25.584078 6.865859 10.864533 # 4
466 4 12.956017 9.028823 14.998081 # 4
467 4 19.262392 6.278346 14.937094 # 4
468 4 19.248095 9.884316 10.699574 # 4
469 4 23.826326 6.897704 8.890302 # 4
470 4 14.926635 9.278707 16.748631 # 4
471 4 17.263433 6.053239 13.258885 # 4
472 4 21.249838 9.917140 12.487807 # 4
473 4 14.518996 6.985022 8.979140 # 4
474 4 24.019081 9.190371 16.767853 # 4
475 4 21.101522 6.325428 13.161418 # 4
476 4 17.500061 9.719537 12.604186 # 4
477 4 21.726755 5.970620 15.836958 # 4
478 4 16.764908 10.189312 9.978137 # 4
479 4 15.054614 6.681126 11.582643 # 4
480 4 23.448490 9.466670 14.152092 # 4
481 4 16.869902 5.993853 15.823338 # 4
482 4 21.655987 10.033838 9.805605 # 4
483 4 23.163664 6.698965 11.516504 # 4
484 4 15.346231 9.506383 14.133627 # 4
485 4 24.232239 7.050581 15.014729 # 4
486 4 14.243458 9.052588 10.678841 # 4
487 4 17.650541 7.746537 10.870284 # 4
488 4 20.873636 8.400048 14.882763 # 4
489 4 14.629589 7.069563 15.127933 # 4
490 4 23.971443 8.994375 10.460458 # 4
491 4 20.769958 7.772470 11.022836 # 4
492 4 17.574053 8.279799 14.928767 # 4
493 4 20.913870 -0.734387 6.675744 # 4
494 1 26.484737 0.387045 33.746830 # 1
495 1 20.054445 -3.622092 30.175661 # 1
496 2 15.992905 0.371148 31.219007 # 2
497 2 17.735735 -3.582359 32.958660 # 2
498 3 24.183222 0.322316 31.036331 # 3
499 3 22.466312 -3.505390 32.920521 # 3
500 3 24.999937 -2.647177 31.590240 # 3
501 3 21.702511 -0.617739 32.335140 # 3
502 3 15.095739 -2.559532 31.739765 # 3
503 3 18.645802 -0.674800 32.369797 # 3
504 4 23.572636 5.567529 6.542415 # 4
505 4 26.535995 -3.193487 31.989779 # 4
506 4 20.154556 -0.143272 31.993559 # 4
507 4 24.489075 -3.138222 30.207901 # 4
508 4 14.685731 5.250162 4.055594 # 4
509 4 18.204414 -3.820137 34.640797 # 4
510 4 22.105213 -0.070879 33.806610 # 4
511 4 15.438770 -3.127284 30.211834 # 4
512 4 23.650248 4.782389 4.177272 # 4
513 4 22.171188 -3.465080 34.539551 # 4
514 4 18.463205 -0.314869 33.950390 # 4
515 4 17.728107 0.165243 31.368225 # 4
516 4 16.023518 -3.365804 32.825020 # 4
517 4 22.583675 0.032185 31.113522 # 4
518 4 24.109116 -3.336264 32.830467 # 4
519 4 15.073448 -0.947912 31.837530 # 4
520 4 18.485210 -2.261590 32.092541 # 4
521 4 24.888401 -1.058424 31.650326 # 4
522 4 21.704576 -2.251981 32.290337 # 4
523 1 12.563065 6.944649 4.798068 # 1
524 1 18.962631 11.146525 8.342753 # 1
525 2 23.085396 7.067616 7.342246 # 2
526 2 21.324944 11.115619 5.572023 # 2
527 3 14.948174 7.122583 7.439105 # 3
528 3 16.674051 10.947501 5.619544 # 3
529 3 14.127295 9.987024 6.839494 # 3
530 3 17.448009 7.952278 6.125926 # 3
531 3 23.993649 9.986353 6.710856 # 3
532 3 20.526957 8.046289 6.012272 # 3
533 4 23.866108 11.630912 10.551714 # 4
534 4 15.470290 1.754237 32.167755 # 4
535 4 17.175596 12.151551 6.579341 # 4
536 4 12.638862 10.401212 6.410900 # 4
537 4 18.969587 7.593806 6.459024 # 4
538 4 24.749645 2.530761 34.496731 # 4
539 4 14.584794 10.565952 8.273291 # 4
540 4 17.030128 7.491597 4.614644 # 4
541 4 20.986433 11.999057 4.113105 # 4
542 4 15.407555 3.079364 34.524872 # 4
543 4 23.755932 10.347828 8.245895 # 4
544 4 20.992510 7.421033 4.564250 # 4
545 4 17.169085 11.426666 4.076937 # 4
546 4 21.361792 7.500465 7.292606 # 4
547 4 23.087919 10.769094 5.727903 # 4
548 4 16.573858 7.304812 7.291546 # 4
549 4 15.075652 10.590759 5.624690 # 4
550 4 23.833906 8.356304 6.395615 # 4
551 4 20.508457 9.654442 5.916320 # 4
552 4 14.189806 8.413428 6.754290 # 4
553 4 17.449089 9.621305 6.222181 # 4
554 4 15.361733 -4.101139 27.847300 # 4
555 4 21.919481 -4.875086 32.311073 # 4
556 1 13.487758 -2.974904 25.920137 # 1
557 1 26.059702 1.908271 25.264532 # 1
558 1 19.745193 -2.341811 21.675203 # 1
559 1 19.891212 1.199594 29.588469 # 1
560 2 24.046831 -2.893738 28.584478 # 2
561 2 15.552372 1.753764 22.630310 # 2
562 2 17.345640 -2.280069 24.317291 # 2
563 2 22.270264 1.112416 26.886293 # 2
564 3 15.797316 -2.806792 28.628517 # 3
565 3 23.832764 1.714038 22.565985 # 3
566 3 22.096600 -2.116645 24.407948 # 3
567 3 17.489925 0.951241 26.780050 # 3
568 3 24.627924 -1.212593 23.146530 # 3
569 3 15.056498 0.138393 28.162992 # 3
570 3 18.335554 -1.912022 27.408115 # 3
571 3 21.286247 0.814724 23.862366 # 3
572 3 14.711027 -1.156094 23.240362 # 3
573 3 24.883396 -0.000563 28.011656 # 3
574 3 21.426165 -1.871977 27.472433 # 3
575 3 18.233768 0.728805 23.696650 # 3
576 4 24.676334 1.567261 31.879303 # 4
577 4 18.061924 2.228858 27.631493 # 4
578 4 26.132292 -1.735482 23.634598 # 4
579 4 13.511674 0.556635 27.896788 # 4
580 4 19.865080 -2.399040 27.726831 # 4
581 4 19.793055 1.294218 23.412582 # 4
582 4 24.070520 -1.627309 21.739971 # 4
583 4 15.550351 0.663635 29.598608 # 4
584 4 17.906652 -2.397043 25.940866 # 4
585 4 21.721802 1.543473 25.243343 # 4
586 4 14.977026 -1.752143 21.704710 # 4
587 4 24.621441 0.498811 29.510223 # 4
588 4 21.732822 -2.449324 25.984915 # 4
589 4 17.879822 1.178657 25.208992 # 4
590 4 22.273844 -2.639210 28.543308 # 4
591 4 17.312683 1.526810 22.751682 # 4
592 4 15.613550 -2.029668 24.186989 # 4
593 4 23.935579 0.849145 27.080154 # 4
594 4 17.406570 -2.608330 28.536499 # 4
595 4 22.226412 1.325205 22.630762 # 4
596 4 23.727421 -1.887687 24.335459 # 4
597 4 15.858989 0.859914 26.920492 # 4
598 4 24.801289 -1.574038 27.814005 # 4
599 4 14.852548 0.398100 23.389887 # 4
600 4 18.204485 -0.875337 23.568314 # 4
601 4 21.340155 -0.266246 27.528423 # 4
602 4 15.086053 -1.438365 28.035723 # 4
603 4 24.579523 0.415844 23.252314 # 4
604 4 21.337454 -0.803672 23.910952 # 4
605 4 18.197954 -0.309944 27.489679 # 4
606 1 13.639956 2.855584 30.151756 # 1
607 1 26.331532 7.721014 29.444698 # 1
608 1 19.919157 3.590963 25.938295 # 1
609 1 20.097717 7.007712 33.920876 # 1
610 2 24.151678 2.924098 32.814121 # 2
611 2 15.734503 7.656332 26.873125 # 2
612 2 17.500290 3.628908 28.590982 # 2
613 2 22.364540 6.922781 31.203114 # 2
614 3 15.925972 3.107390 32.899178 # 3
615 3 24.046383 7.591407 26.844971 # 3
616 3 22.241961 3.736037 28.623222 # 3
617 3 17.730267 6.842303 31.085224 # 3
618 3 24.828215 4.604935 27.340769 # 3
619 3 15.167730 5.942726 32.359802 # 3
620 3 18.468468 3.850373 31.605530 # 3
621 3 21.499168 6.729922 28.128489 # 3
622 3 14.799346 4.685144 27.482573 # 3
623 3 25.067043 5.926619 32.328629 # 3
624 3 21.479578 3.919782 31.742336 # 3
625 3 18.460173 6.629503 28.009842 # 3
626 4 14.962425 3.144222 23.543499 # 4
627 4 18.194191 8.133492 31.857962 # 4
628 4 21.670839 2.572566 27.754227 # 4
629 4 26.300362 4.084687 27.830196 # 4
630 4 13.686108 6.402075 31.993559 # 4
631 4 19.942923 3.324798 32.027313 # 4
632 4 20.018526 7.161057 27.610149 # 4
633 4 24.601208 4.006417 25.852032 # 4
634 4 15.599842 6.394846 33.869114 # 4
635 4 17.956116 3.288194 30.189283 # 4
636 4 21.871269 7.164940 29.589226 # 4
637 4 15.239415 4.131160 25.970383 # 4
638 4 24.570061 6.252274 33.832489 # 4
639 4 21.914631 3.531076 30.201542 # 4
640 4 18.270992 7.127426 29.556381 # 4
641 4 22.453363 3.005950 32.688366 # 4
642 4 17.461317 7.347962 26.995714 # 4
643 4 15.774183 3.785751 28.452662 # 4
644 4 24.085342 6.730337 31.354452 # 4
645 4 17.555635 3.211649 32.813980 # 4
646 4 22.465740 7.366593 27.014170 # 4
647 4 23.840715 3.972532 28.490944 # 4
648 4 16.132866 6.560615 31.294519 # 4
649 4 24.976433 4.292662 32.197567 # 4
650 4 14.912185 6.278208 27.689449 # 4
651 4 18.352623 5.022402 27.869247 # 4
652 4 21.590914 5.508553 31.970402 # 4
653 4 15.219358 4.331201 32.154739 # 4
654 4 24.828005 6.237193 27.470467 # 4
655 4 21.474966 5.058069 27.990925 # 4
656 4 18.461990 5.489434 31.611429 # 4
657 4 14.904268 -2.728784 19.290382 # 4
658 4 21.452856 -3.234628 23.500668 # 4
659 1 13.149230 -1.616251 17.442375 # 1
660 1 25.830309 3.199629 16.778141 # 1
661 1 19.388292 -0.988847 13.146286 # 1
662 1 19.566324 2.522031 21.086485 # 1
663 2 23.611563 -1.528200 20.073576 # 2
664 2 15.287316 3.169378 14.157085 # 2
665 2 16.971153 -0.878707 15.830450 # 2
666 2 21.946115 2.476633 18.418518 # 2
667 3 15.407816 -1.489120 20.176933 # 3
668 3 23.450338 3.023731 14.093522 # 3
669 3 21.716717 -0.768897 15.912781 # 3
670 3 17.216503 2.339858 18.352230 # 3
671 3 24.231234 0.102696 14.654087 # 3
672 3 14.711973 1.441840 19.554623 # 3
673 3 17.983053 -0.614875 18.865578 # 3
674 3 20.956898 2.173874 15.373252 # 3
675 3 14.391757 0.209795 14.744888 # 3
676 3 24.552082 1.387147 19.478354 # 3
677 3 21.086756 -0.531009 18.987400 # 3
678 3 17.950012 2.082115 15.240983 # 3
679 4 24.307262 3.032544 23.290905 # 4
680 4 17.710840 3.667706 19.155542 # 4
681 4 25.798225 -0.229610 15.076777 # 4
682 4 13.187171 1.806340 19.159025 # 4
683 4 19.529549 -0.997943 19.171888 # 4
684 4 19.497475 2.662512 14.941631 # 4
685 4 23.840319 -0.456456 13.240267 # 4
686 4 15.180739 1.994911 20.945747 # 4
687 4 17.586254 -1.209501 17.431326 # 4
688 4 21.336418 2.805485 16.789642 # 4
689 4 14.534788 -0.266682 13.157029 # 4
690 4 24.211372 1.842703 21.016115 # 4
691 4 21.439947 -1.017463 17.494888 # 4
692 4 17.743940 2.463613 16.799028 # 4
693 4 21.975719 -1.298097 20.084011 # 4
694 4 16.976274 2.875433 14.277551 # 4
695 4 15.293286 -0.552143 15.913384 # 4
696 4 23.647303 2.246891 18.380983 # 4
697 4 17.038197 -1.396605 20.000021 # 4
698 4 21.851837 2.974598 14.228668 # 4
699 4 23.339571 -0.598720 15.856330 # 4
700 4 15.618367 2.212667 18.425779 # 4
701 4 24.576521 -0.212197 19.412971 # 4
702 4 14.400693 1.855597 14.870652 # 4
703 4 17.700727 0.502693 14.973866 # 4
704 4 21.229870 1.049147 19.012981 # 4
705 4 14.720972 -0.178998 19.483946 # 4
706 4 24.150156 1.695454 14.715530 # 4
707 4 20.921238 0.544076 15.255362 # 4
708 4 17.777809 0.986798 19.063831 # 4
709 1 13.271195 4.212531 21.668844 # 1
710 1 26.002356 9.098785 21.004164 # 1
711 1 19.567268 4.888125 17.472338 # 1
712 1 19.674435 8.394000 25.268167 # 1
713 2 23.858028 4.364607 24.335909 # 2
714 2 15.442471 8.990162 18.378111 # 2
715 2 17.144701 5.028536 20.059647 # 2
716 2 22.015402 8.316694 22.636967 # 2
717 3 15.587432 4.402911 24.379045 # 3
718 3 23.618999 8.962920 18.300167 # 3
719 3 21.908815 5.099272 20.186621 # 3
720 3 17.268574 8.201067 22.571739 # 3
721 3 24.420210 5.991862 18.886766 # 3
722 3 14.806493 7.345557 23.844055 # 3
723 3 18.090818 5.255490 23.111719 # 3
724 3 21.088520 8.093660 19.546909 # 3
725 3 14.514492 6.072242 18.991343 # 3
726 3 24.723028 7.205257 23.717388 # 3
727 3 21.130381 5.362062 23.209332 # 3
728 3 18.059507 7.954616 19.506958 # 3
729 4 24.638390 8.871045 27.610149 # 4
730 4 14.820737 4.531576 15.031377 # 4
731 4 17.785307 9.453958 23.431652 # 4
732 4 21.316528 3.817879 19.409798 # 4
733 4 25.938034 5.565109 19.289635 # 4
734 4 13.237418 7.919602 23.460409 # 4
735 4 19.612455 4.745356 23.463737 # 4
736 4 19.628925 8.415005 19.148733 # 4
737 4 24.116526 5.545372 17.413315 # 4
738 4 15.297467 7.968627 25.219429 # 4
739 4 17.653873 4.780025 21.675051 # 4
740 4 21.518003 8.619694 20.993114 # 4
741 4 14.715188 5.589905 17.378054 # 4
742 4 24.412653 7.724686 25.260897 # 4
743 4 21.623552 4.772126 21.774935 # 4
744 4 17.516260 8.448146 20.994169 # 4
745 4 22.177269 4.701828 24.306395 # 4
746 4 17.130171 8.752976 18.519007 # 4
747 4 15.459092 5.240775 19.998352 # 4
748 4 23.702303 7.959834 22.788765 # 4
749 4 17.188711 4.623612 24.278404 # 4
750 4 22.046965 8.731079 18.337851 # 4
751 4 23.589149 5.112458 19.962334 # 4
752 4 15.635569 7.908257 22.546925 # 4
753 4 24.657810 5.641870 23.520487 # 4
754 4 14.500161 7.686815 19.074276 # 4
755 4 17.986881 6.359044 19.373173 # 4
756 4 20.995552 6.975276 23.135633 # 4
757 4 14.805386 5.687263 23.802135 # 4
758 4 24.319092 7.592414 18.986345 # 4
759 4 21.203037 6.432321 19.650421 # 4
760 4 18.109852 6.943768 23.107634 # 4
761 5 22.837614 0.212313 4.507042 # 5
762 5 14.624966 1.297784 3.930136 # 5
763 5 14.945205 4.971029 3.205974 # 5
764 5 18.932123 -1.781558 41.825363 # 5
765 5 22.868122 -0.571331 34.248077 # 5
766 5 23.541418 4.168428 3.510017 # 5
767 5 21.289900 -2.945931 34.737812 # 5
768 5 17.559671 -0.336745 34.378380 # 5