LAMMPS data file. CGCMM style. atom_style atomic generated by VMD/TopoTools v1.8 on Wed Aug 27 18:25:51 CEST 2025
 12540 atoms
 5 atom types
 -32.084549 19.773453  xlo xhi
 0.091263 38.877316  ylo yhi
 -12.086612 85.499104  zlo zhi
 0.270783 -48.018172 0.145414 xy xz yz

 Masses

1 39.0983
2 26.981538
3 28.0855
4 15.9994
5 2

 Atoms # atomic

1 4 -3.143033 1.744635 7.403353 # 4
2 4 0.067714 1.595225 3.682312 # 4
3 4 0.251736 11.481917 3.632934 # 4
4 4 1.295200 8.263825 7.319917 # 4
5 4 4.535001 8.093765 3.609414 # 4
6 4 4.693100 4.875435 3.726713 # 4
7 1 3.717404 38.832935 6.460382 # 1
8 2 6.203705 10.619639 6.036762 # 2
9 3 6.233717 2.331792 6.004461 # 3
10 3 0.520756 11.353886 5.274032 # 3
11 3 0.401718 1.525696 5.256467 # 3
12 4 0.949471 12.974598 5.505896 # 4
13 4 -0.731194 10.997408 6.187727 # 4
14 4 -0.891837 2.009211 6.115611 # 4
15 4 5.979979 8.960547 5.607190 # 4
16 4 6.051911 3.888469 5.870769 # 4
17 4 5.363151 11.908456 5.070078 # 4
18 4 5.467772 1.714339 4.670465 # 4
19 1 -0.845831 6.539780 6.510052 # 1
20 2 1.853262 4.122761 6.048863 # 2
21 3 1.925243 8.822808 5.991288 # 3
22 3 4.838624 4.878999 5.363616 # 3
23 3 4.799608 7.967443 5.251392 # 3
24 4 5.245798 6.421632 5.724878 # 4
25 4 3.575247 4.370906 6.199633 # 4
26 4 3.498790 8.420641 6.125077 # 4
27 4 1.664613 2.436026 5.632659 # 4
28 4 1.812119 10.456032 5.719316 # 4
29 4 1.389669 5.226068 4.772539 # 4
30 4 1.240478 8.045216 4.683639 # 4
31 1 -1.124002 12.801212 8.387211 # 1
32 2 -3.858661 2.349680 8.870359 # 2
33 3 -3.754951 10.572438 8.953208 # 3
34 3 1.831343 1.505804 9.638064 # 3
35 3 1.934911 11.452116 9.741017 # 3
36 4 -6.471420 1.805806 13.839228 # 4
37 4 1.625332 38.803349 9.303443 # 4
38 4 3.136216 1.829287 8.823225 # 4
39 4 3.426853 11.211942 9.108370 # 4
40 4 -3.598865 4.034030 9.257871 # 4
41 4 -3.679100 8.987597 9.210346 # 4
42 4 -2.951543 1.645032 10.146682 # 4
43 4 -2.892713 11.379050 10.109797 # 4
44 1 3.144913 6.410836 8.370914 # 1
45 2 0.554444 8.801381 8.842937 # 2
46 3 0.514843 4.069006 9.043864 # 3
47 3 -2.438626 7.954053 9.618646 # 3
48 3 -2.449235 4.965747 9.829237 # 3
49 4 -1.986801 8.319139 13.856305 # 4
50 4 -2.927899 6.475643 9.278755 # 4
51 4 -1.188603 8.376091 8.764283 # 4
52 4 -0.981363 4.737229 9.185073 # 4
53 4 0.855622 10.474816 9.188877 # 4
54 4 0.586747 2.482741 9.165361 # 4
55 4 1.429983 7.874432 10.065198 # 4
56 4 1.523497 4.622179 10.166883 # 4
57 1 0.224472 0.075935 13.041172 # 1
58 2 2.949774 10.488045 12.547389 # 2
59 3 2.936531 2.353308 12.483861 # 3
60 3 -2.721490 11.333655 11.791684 # 3
61 3 -2.851299 1.439090 11.740158 # 3
62 4 5.506494 11.077447 7.609160 # 4
63 4 -2.194008 12.864010 12.085222 # 4
64 4 -4.003034 10.941836 12.544656 # 4
65 4 -4.243977 1.758120 12.468441 # 4
66 4 2.810568 8.826340 12.161533 # 4
67 4 2.869158 3.954794 12.383932 # 4
68 4 1.997056 11.445082 11.344449 # 4
69 4 1.993948 1.725809 11.227836 # 4
70 1 -4.076863 6.562121 13.042929 # 1
71 2 -1.470424 3.979407 12.581250 # 2
72 3 -1.384933 8.796013 12.450875 # 3
73 3 1.567918 4.828422 11.766995 # 3
74 3 1.584012 7.905584 11.657700 # 3
75 4 1.159035 4.552775 7.632191 # 4
76 4 1.973067 6.381655 12.161925 # 4
77 4 0.243801 4.393240 12.546217 # 4
78 4 0.254918 8.409616 12.391543 # 4
79 4 -1.772871 2.352264 12.413600 # 4
80 4 -1.494145 10.359675 12.140457 # 4
81 4 -2.289137 4.994422 11.399781 # 4
82 4 -2.149305 7.983098 11.228518 # 4
83 1 -4.367748 12.859651 14.860755 # 1
84 2 -7.054960 2.371900 15.429289 # 2
85 3 -6.993171 10.533737 15.490867 # 3
86 3 -1.400241 1.560922 16.168207 # 3
87 3 -1.336839 11.481044 16.217098 # 3
88 4 -9.485899 1.890078 20.487549 # 4
89 4 -1.565150 38.804153 15.830856 # 4
90 4 -0.133363 2.041722 15.366738 # 4
91 4 0.073108 11.107498 15.619776 # 4
92 4 -6.829972 4.061475 15.650810 # 4
93 4 -7.007275 8.883134 15.683598 # 4
94 4 -6.027762 1.525711 16.610174 # 4
95 4 -6.078768 11.264769 16.605297 # 4
96 1 -0.058804 6.373548 14.867881 # 1
97 2 -2.697508 8.849278 15.348293 # 2
98 3 -2.689121 4.084111 15.510774 # 3
99 3 -5.675677 8.018585 16.146544 # 3
100 3 -5.636518 4.964129 16.214170 # 3
101 4 -5.230549 8.317276 20.362932 # 4
102 4 -6.063720 6.472633 15.692186 # 4
103 4 -4.433574 8.482011 15.294426 # 4
104 4 -4.218543 4.591888 15.451636 # 4
105 4 -2.516287 10.625822 15.599284 # 4
106 4 -2.714047 2.436349 15.750934 # 4
107 4 -1.895501 7.931289 16.570358 # 4
108 4 -1.781545 4.830893 16.678288 # 4
109 1 -3.048126 0.077796 19.569071 # 1
110 2 -0.354683 10.555159 19.038204 # 2
111 3 -0.337269 2.374134 18.994976 # 3
112 3 -5.989950 11.366112 18.267765 # 3
113 3 -6.014740 1.482625 18.180134 # 3
114 4 2.148042 10.910772 14.030397 # 4
115 4 -5.533022 12.866954 18.668650 # 4
116 4 -7.259529 10.917318 19.100367 # 4
117 4 -7.529434 1.765781 18.788385 # 4
118 4 -0.516082 8.817786 18.759501 # 4
119 4 -0.427963 3.952829 18.717537 # 4
120 4 -1.299988 11.372427 17.820431 # 4
121 4 -1.204199 1.591700 17.837412 # 4
122 1 -7.332266 6.547661 19.554726 # 1
123 2 -4.617898 4.096554 19.071285 # 2
124 3 -4.608112 8.795789 18.936913 # 3
125 3 -1.710281 4.870174 18.260155 # 3
126 3 -1.674812 7.913781 18.199749 # 3
127 4 -2.058854 4.644969 14.138720 # 4
128 4 -1.307925 6.404916 18.636053 # 4
129 4 -2.939180 4.410766 19.179607 # 4
130 4 -3.056527 8.361581 18.965014 # 4
131 4 -4.960097 2.415954 18.832006 # 4
132 4 -4.721097 10.414306 18.738323 # 4
133 4 -5.395420 5.035366 17.793013 # 4
134 4 -5.361755 8.097673 17.684790 # 4
135 1 -7.620150 12.902719 21.196020 # 1
136 2 -10.329113 2.401713 21.937670 # 2
137 3 -10.351442 10.656306 21.896978 # 3
138 3 -4.710516 1.633207 22.589251 # 3
139 3 -4.620159 11.503645 22.638824 # 3
140 4 -5.096805 0.101800 22.064825 # 4
141 4 -3.299562 1.884488 21.838135 # 4
142 4 -3.249300 11.172447 21.777241 # 4
143 4 -10.072684 4.053700 22.406279 # 4
144 4 -10.197833 9.014243 22.094978 # 4
145 4 -9.809539 1.201067 23.145002 # 4
146 4 -9.717307 11.441609 23.096111 # 4
147 1 -3.329463 6.433451 21.283066 # 1
148 2 -5.977400 8.805168 21.821545 # 2
149 3 -6.066829 4.208224 21.938063 # 3
150 3 -8.906441 8.097713 22.682739 # 3
151 3 -8.888447 5.023793 22.806479 # 3
152 4 -9.467606 6.568186 22.761490 # 4
153 4 -7.566863 8.161414 21.781143 # 4
154 4 -7.597080 4.800696 21.870434 # 4
155 4 -5.800606 10.524610 22.145432 # 4
156 4 -5.977332 2.621631 22.253654 # 4
157 4 -4.988730 8.096663 23.098063 # 4
158 4 -5.300679 5.102253 23.064690 # 4
159 4 -0.838773 11.129339 20.621143 # 4
160 4 -4.510530 11.518469 24.284021 # 4
161 4 -4.546581 1.616761 24.231133 # 4
162 4 -5.457166 4.551679 20.509212 # 4
163 4 -8.276839 4.869287 24.302271 # 4
164 4 -8.578827 8.646976 24.149452 # 4
165 5 -0.063654 0.689806 3.353643 # 5
166 5 0.329928 10.734253 3.044296 # 5
167 5 3.594039 8.078445 3.505388 # 5
168 5 4.236102 4.165369 3.303679 # 5
169 5 6.000478 12.218357 4.445432 # 5
170 5 5.340006 0.750159 4.671831 # 5
171 5 1.328983 5.001520 3.824690 # 5
172 5 1.352788 7.089653 4.611619 # 5
173 5 -9.395776 1.371757 24.006880 # 5
174 5 -9.646566 12.449568 23.087427 # 5
175 5 -5.294321 7.274776 23.455030 # 5
176 5 -5.191433 4.848352 23.996437 # 5
177 5 -4.423280 10.742874 24.811180 # 5
178 5 -3.986716 2.340723 24.590540 # 5
179 5 -8.913754 4.645602 25.027527 # 5
180 5 -8.032122 8.200192 24.821035 # 5
181 4 5.565310 1.802293 7.358463 # 4
182 4 8.814957 1.537806 3.638203 # 4
183 4 8.962996 11.175535 3.729445 # 4
184 4 9.917421 8.333660 7.385300 # 4
185 4 13.383196 8.312942 3.606878 # 4
186 4 13.365152 4.723763 3.713929 # 4
187 1 12.130955 0.086148 6.514933 # 1
188 2 14.834979 10.636329 6.147814 # 2
189 3 14.873141 2.382366 6.086042 # 3
190 3 9.261758 11.321275 5.330534 # 3
191 3 9.087418 1.516808 5.247587 # 3
192 4 9.606350 12.897872 5.423728 # 4
193 4 7.899518 10.996410 6.169088 # 4
194 4 7.765893 1.967023 6.039690 # 4
195 4 14.630865 8.976197 5.699018 # 4
196 4 14.791201 4.002578 5.928930 # 4
197 4 14.207715 11.884265 4.973566 # 4
198 4 14.077727 1.763818 4.777028 # 4
199 1 7.919343 6.510808 6.510736 # 1
200 2 10.512838 4.140349 6.060671 # 2
201 3 10.563033 8.835140 6.042031 # 3
202 3 13.522030 4.875958 5.353467 # 3
203 3 13.495071 7.984911 5.209235 # 3
204 4 13.796164 6.424677 5.529707 # 4
205 4 12.176662 4.458590 6.165380 # 4
206 4 12.108769 8.297490 5.991288 # 4
207 4 10.311931 2.503414 5.511166 # 4
208 4 10.449636 10.436663 5.942786 # 4
209 4 9.659405 5.370407 4.965563 # 4
210 4 9.807426 8.226289 4.722869 # 4
211 1 7.540573 12.838386 8.398726 # 1
212 2 4.787713 2.316658 8.886364 # 2
213 3 4.911199 10.650310 9.023862 # 3
214 3 10.492393 1.555105 9.640798 # 3
215 3 10.548210 11.416539 9.760439 # 3
216 4 2.318662 1.869807 13.891047 # 4
217 4 10.238032 38.839149 9.352919 # 4
218 4 11.860620 1.810108 8.870650 # 4
219 4 11.965826 11.060361 9.053136 # 4
220 4 5.072342 4.000264 9.113055 # 4
221 4 4.930527 8.953222 9.281195 # 4
222 4 5.692627 1.409797 10.064808 # 4
223 4 5.997372 11.225681 10.182203 # 4
224 1 11.867290 6.343015 8.407120 # 1
225 2 9.196616 8.821621 8.890363 # 2
226 3 9.139179 4.145302 8.994389 # 3
227 3 6.217091 8.055061 9.650654 # 3
228 3 6.155859 4.953864 9.767660 # 3
229 4 6.692307 8.301206 13.821176 # 4
230 4 5.734923 6.524298 9.420255 # 4
231 4 7.543803 8.483511 8.726321 # 4
232 4 7.645403 4.764441 9.174435 # 4
233 4 9.357083 10.514603 9.209956 # 4
234 4 9.242301 2.476812 9.085633 # 4
235 4 9.782683 7.728034 10.183082 # 4
236 4 10.012366 4.773642 10.273739 # 4
237 1 8.837975 0.083433 13.055518 # 1
238 2 11.523711 10.540543 12.587983 # 2
239 3 11.510643 2.336706 12.467368 # 3
240 3 5.909436 11.334981 11.821547 # 3
241 3 5.825757 1.373004 11.670679 # 3
242 4 14.094225 11.090629 7.658051 # 4
243 4 6.349551 12.820665 12.176074 # 4
244 4 4.602628 11.009215 12.627213 # 4
245 4 4.423865 1.696449 12.405207 # 4
246 4 11.455544 8.826936 12.145334 # 4
247 4 11.513348 3.937777 12.338944 # 4
248 4 10.656528 11.530868 11.365333 # 4
249 4 10.614599 1.738026 11.263552 # 4
250 1 4.573566 6.509491 13.096991 # 1
251 2 7.152843 4.009363 12.564272 # 2
252 3 7.280574 8.785602 12.439166 # 3
253 3 10.151128 4.839624 11.839796 # 3
254 3 10.219187 7.918127 11.746111 # 3
255 4 9.811147 4.715466 7.620969 # 4
256 4 10.508586 6.365481 12.213647 # 4
257 4 8.834084 4.362727 12.501621 # 4
258 4 8.876907 8.434175 12.474883 # 4
259 4 6.955457 2.270504 12.273952 # 4
260 4 7.098212 10.415922 12.404717 # 4
261 4 6.213115 4.831908 11.321223 # 4
262 4 6.425307 8.178486 11.217392 # 4
263 1 4.338112 12.829929 14.852557 # 1
264 2 1.572943 2.412500 15.376595 # 2
265 3 1.538749 10.550091 15.429484 # 3
266 3 7.252954 1.597939 16.201485 # 3
267 3 7.289032 11.467087 16.221394 # 3
268 4 -0.925460 1.902995 20.457003 # 4
269 4 6.831157 0.103608 15.707801 # 4
270 4 8.516604 1.956679 15.389769 # 4
271 4 8.615128 11.019436 15.400015 # 4
272 4 1.638419 4.092031 15.697651 # 4
273 4 1.646347 8.997990 15.872133 # 4
274 4 2.357388 1.436993 16.548695 # 4
275 4 2.574921 11.233762 16.541962 # 4
276 1 8.551139 6.339955 14.943996 # 1
277 2 5.935774 8.864391 15.312966 # 2
278 3 5.885821 4.113742 15.483450 # 3
279 3 2.989257 8.082675 16.130735 # 3
280 3 2.908677 5.007160 16.225882 # 3
281 4 3.446466 8.288116 20.367517 # 4
282 4 2.535923 6.549973 15.849298 # 4
283 4 4.247644 8.431894 15.291012 # 4
284 4 4.290577 4.545928 15.557323 # 4
285 4 6.075461 10.600006 15.688673 # 4
286 4 5.982615 2.522321 15.679596 # 4
287 4 6.790256 7.950744 16.611931 # 4
288 4 6.756287 4.845146 16.664724 # 4
289 1 5.604695 0.096232 19.518425 # 1
290 2 8.304385 10.448220 19.060455 # 2
291 3 8.279227 2.307504 19.006195 # 3
292 3 2.676810 11.297231 18.165106 # 3
293 3 2.579082 1.482370 18.150270 # 3
294 4 10.850678 10.952299 14.100368 # 4
295 4 3.103076 12.829170 18.560034 # 4
296 4 1.350902 10.808145 18.924128 # 4
297 4 1.170295 1.835250 18.952133 # 4
298 4 8.228365 8.720684 18.771309 # 4
299 4 8.206256 3.922941 18.762819 # 4
300 4 7.469172 11.354817 17.793791 # 4
301 4 7.324063 1.578651 17.896549 # 4
302 1 1.342241 6.558930 19.413227 # 1
303 2 3.916866 4.049534 19.038109 # 2
304 3 4.034465 8.852611 18.989412 # 3
305 3 6.896132 4.866747 18.276743 # 3
306 3 6.966887 7.935189 18.173012 # 3
307 4 6.588104 4.514897 14.123593 # 4
308 4 7.258102 6.371554 18.631954 # 4
309 4 5.556261 4.381592 19.018881 # 4
310 4 5.589104 8.441525 18.890751 # 4
311 4 3.802716 2.287639 18.808683 # 4
312 4 3.945267 10.418978 18.775991 # 4
313 4 2.958414 4.914732 17.838875 # 4
314 4 3.215897 8.071066 17.762661 # 4
315 1 1.111777 12.896106 21.287457 # 1
316 2 -1.604223 2.361394 21.957775 # 2
317 3 -1.671129 10.652241 21.954651 # 3
318 3 3.981037 1.659434 22.633261 # 3
319 3 4.028210 11.423541 22.761391 # 3
320 4 3.764321 38.860737 22.278244 # 4
321 4 5.399209 1.843175 21.974852 # 4
322 4 5.368536 11.027369 21.922155 # 4
323 4 -1.429906 4.071195 22.407547 # 4
324 4 -1.617663 9.010217 22.151190 # 4
325 4 -0.712486 1.536159 23.252052 # 4
326 4 -1.146577 11.374031 23.321730 # 4
327 1 5.360144 6.499816 21.232323 # 1
328 2 2.677497 8.879230 21.834816 # 2
329 3 2.645841 4.322558 21.985098 # 3
330 3 -0.277972 8.093369 22.552265 # 3
331 3 -0.300162 5.080879 22.775932 # 3
332 4 -0.660514 6.566352 22.207983 # 4
333 4 0.988120 8.469455 21.626762 # 4
334 4 1.084760 4.701482 21.974558 # 4
335 4 2.792979 10.576544 22.224182 # 4
336 4 2.779429 2.637260 22.138016 # 4
337 4 3.408933 7.608175 22.852146 # 4
338 4 3.447906 5.047665 23.287575 # 4
339 4 7.549657 11.101024 20.541416 # 4
340 4 4.198857 11.225039 24.379364 # 4
341 4 4.161023 1.713701 24.271240 # 4
342 4 3.356724 4.600760 20.573032 # 4
343 4 0.081669 5.176202 24.355455 # 4
344 4 -0.120945 8.082800 24.179605 # 4
345 5 8.027533 1.087622 3.381649 # 5
346 5 8.617929 10.284471 3.420782 # 5
347 5 12.650111 7.822704 3.176623 # 5
348 5 13.381208 3.801688 3.426246 # 5
349 5 14.351607 11.514272 4.105541 # 5
350 5 14.281638 0.824139 4.627526 # 5
351 5 9.400620 5.117082 4.097929 # 5
352 5 9.713427 7.226932 4.569757 # 5
353 5 -0.992018 0.683987 23.522856 # 5
354 5 -0.600977 10.921326 24.001902 # 5
355 5 3.570116 7.881077 23.791313 # 5
356 5 3.335706 6.009017 23.209700 # 5
357 5 3.950417 10.343841 24.835283 # 5
358 5 3.562355 2.356453 24.756433 # 5
359 5 0.090473 6.059929 24.762583 # 5
360 5 0.213768 8.801531 24.743359 # 5
361 4 14.184912 1.818001 7.413014 # 4
362 4 17.343834 1.647024 3.596436 # 4
363 4 17.738230 11.130509 3.810734 # 4
364 4 18.411255 8.313693 7.416820 # 4
365 4 21.362160 8.236567 3.863918 # 4
366 4 21.934475 4.687257 3.734812 # 4
367 1 20.779371 0.068916 6.526057 # 1
368 2 23.521986 10.636419 6.104681 # 2
369 3 23.464743 2.306473 6.075113 # 3
370 3 17.853922 11.304663 5.427535 # 3
371 3 17.732922 1.520759 5.215189 # 3
372 4 18.273407 12.905686 5.722342 # 4
373 4 16.599281 10.850956 6.346792 # 4
374 4 16.438560 1.810690 6.179140 # 4
375 4 23.177027 8.952140 5.718242 # 4
376 4 23.392101 3.935201 5.847056 # 4
377 4 22.817083 11.832327 4.997474 # 4
378 4 22.767658 1.604388 4.750778 # 4
379 1 16.558973 6.558504 6.503125 # 1
380 2 19.083733 4.123177 6.119418 # 2
381 3 19.169992 8.814837 6.108487 # 3
382 3 22.130781 4.843692 5.381865 # 3
383 3 22.036579 7.954603 5.302235 # 3
384 4 22.466290 6.431781 5.612460 # 4
385 4 20.798201 4.489749 6.175334 # 4
386 4 20.691593 8.110139 6.293803 # 4
387 4 18.869959 2.447696 5.746640 # 4
388 4 19.265083 10.436063 5.878381 # 4
389 4 18.452181 5.198590 4.812647 # 4
390 4 18.416462 8.102758 4.828749 # 4
391 1 16.175312 12.770590 8.452106 # 1
392 2 13.540194 2.355035 8.916223 # 2
393 3 13.459802 10.528084 9.015663 # 3
394 3 19.086626 1.573689 9.764438 # 3
395 3 19.168097 11.411550 9.795568 # 3
396 4 10.991404 1.870598 13.896413 # 4
397 4 19.038908 38.812107 9.427670 # 4
398 4 20.465641 2.017778 9.022690 # 4
399 4 20.579466 11.069063 9.062798 # 4
400 4 13.656310 4.018003 9.252700 # 4
401 4 13.497850 8.875274 9.211128 # 4
402 4 14.365600 1.459064 10.120236 # 4
403 4 14.375764 11.063802 10.269053 # 4
404 1 20.459667 6.423362 8.473867 # 1
405 2 17.786764 8.856923 8.895342 # 2
406 3 17.823278 4.130199 9.062018 # 3
407 3 14.846865 8.040782 9.725211 # 3
408 3 14.825598 4.968239 9.810205 # 3
409 4 15.183278 8.327579 13.898269 # 4
410 4 14.327566 6.504087 9.444454 # 4
411 4 16.087996 8.461964 8.738522 # 4
412 4 16.304565 4.661012 9.157651 # 4
413 4 18.035934 10.589335 9.047771 # 4
414 4 17.860744 2.490457 9.267921 # 4
415 4 18.619873 8.044142 10.184056 # 4
416 4 18.809418 4.848830 10.235777 # 4
417 1 17.734537 38.791222 13.137392 # 1
418 2 20.191105 10.575897 12.601646 # 2
419 3 20.137169 2.271834 12.489326 # 3
420 3 14.582687 11.273279 11.878633 # 3
421 3 14.458304 1.473619 11.722790 # 3
422 4 22.751383 11.219586 7.679520 # 4
423 4 15.069940 12.846412 12.040918 # 4
424 4 13.272042 10.975821 12.757099 # 4
425 4 13.017141 1.731575 12.429016 # 4
426 4 19.950510 8.863093 12.385494 # 4
427 4 20.043612 3.904486 12.455267 # 4
428 4 19.130926 11.316772 11.419590 # 4
429 4 19.173733 1.633095 11.347377 # 4
430 1 13.199604 6.566989 13.108603 # 1
431 2 15.823382 4.057202 12.652879 # 2
432 3 15.875435 8.709222 12.562612 # 3
433 3 18.805891 4.852160 11.871118 # 3
434 3 18.831980 7.921121 11.777436 # 3
435 4 18.498518 4.574601 7.703038 # 4
436 4 19.317415 6.364453 12.252679 # 4
437 4 17.422876 4.670422 12.661077 # 4
438 4 17.397331 8.167439 12.576176 # 4
439 4 15.588504 2.336011 12.495375 # 4
440 4 15.837637 10.347192 12.326063 # 4
441 4 14.982281 4.797055 11.383582 # 4
442 4 15.003782 8.159012 11.318981 # 4
443 1 12.957579 12.853414 14.918136 # 1
444 2 10.213797 2.407045 15.359517 # 2
445 3 10.158239 10.586297 15.494673 # 3
446 3 15.797028 1.621771 16.226370 # 3
447 3 15.951854 11.532311 16.342789 # 3
448 4 7.769503 1.778889 20.445585 # 4
449 4 15.302726 0.136496 15.849495 # 4
450 4 17.197432 2.000345 15.515264 # 4
451 4 17.411623 11.294447 15.594502 # 4
452 4 10.389148 4.058024 15.703700 # 4
453 4 10.214921 8.924518 15.760592 # 4
454 4 11.129395 1.498344 16.587048 # 4
455 4 11.028739 11.379303 16.630278 # 4
456 1 17.136749 6.367911 14.937653 # 1
457 2 14.589945 8.918962 15.441879 # 2
458 3 14.517856 4.181428 15.512629 # 3
459 3 11.539557 8.099259 16.146349 # 3
460 3 11.564895 5.022573 16.235739 # 3
461 4 12.010831 8.470528 20.342146 # 4
462 4 11.122190 6.533603 15.795040 # 4
463 4 12.834180 8.665795 15.435143 # 4
464 4 13.027503 4.735510 15.553810 # 4
465 4 14.809985 10.575089 15.780891 # 4
466 4 14.556064 2.575710 15.861887 # 4
467 4 15.455894 7.895973 16.582361 # 4
468 4 15.252995 4.955639 16.763287 # 4
469 1 14.184576 0.078888 19.470703 # 1
470 2 16.963644 10.581633 19.183413 # 2
471 3 16.952322 2.393651 19.039667 # 3
472 3 11.285466 11.390869 18.275572 # 3
473 3 11.247816 1.507567 18.166763 # 3
474 4 19.693525 11.065691 14.191513 # 4
475 4 11.837541 12.916553 18.480503 # 4
476 4 9.972058 10.968890 19.117638 # 4
477 4 9.805026 1.808539 18.820101 # 4
478 4 16.665308 8.904029 18.746815 # 4
479 4 16.877728 3.997505 18.739983 # 4
480 4 16.109259 11.497110 17.915579 # 4
481 4 16.011732 1.757492 17.827946 # 4
482 1 9.974982 6.558238 19.521255 # 1
483 2 12.577137 4.076612 19.093536 # 2
484 3 12.628633 8.863016 18.996828 # 3
485 3 15.577054 4.932006 18.369255 # 3
486 3 15.547154 7.953342 18.173691 # 3
487 4 15.184154 4.643094 14.181657 # 4
488 4 16.080177 6.454820 18.730322 # 4
489 4 14.243076 4.546875 19.185463 # 4
490 4 14.127872 8.249072 18.919247 # 4
491 4 12.422525 2.370379 18.861866 # 4
492 4 12.549581 10.503675 18.742031 # 4
493 4 11.630005 4.948546 17.834194 # 4
494 4 11.740842 8.194139 17.792425 # 4
495 1 9.660359 12.852544 21.309608 # 1
496 2 7.062443 2.344122 21.937086 # 2
497 3 6.948876 10.685384 21.967533 # 3
498 3 12.610263 1.700125 22.612965 # 3
499 3 12.594491 11.522400 22.757393 # 3
500 4 12.119137 0.156542 22.386566 # 4
501 4 13.882763 1.979490 21.663164 # 4
502 4 14.022637 11.313249 21.991051 # 4
503 4 7.075150 4.128783 22.245361 # 4
504 4 7.003814 9.032146 22.214035 # 4
505 4 7.826391 1.259002 23.129681 # 4
506 4 7.571341 11.547408 23.220144 # 4
507 1 13.914326 6.464791 21.336054 # 1
508 2 11.279616 8.806293 21.899612 # 2
509 3 11.185815 4.176764 21.909468 # 3
510 3 8.305732 8.108647 22.680395 # 3
511 3 8.276424 5.034394 22.789400 # 3
512 4 7.903016 6.582037 22.452045 # 4
513 4 9.608684 8.346589 21.735670 # 4
514 4 9.649039 4.707269 21.953384 # 4
515 4 11.416887 10.503292 22.364414 # 4
516 4 11.326238 2.575075 22.135477 # 4
517 4 12.163681 7.800175 23.013943 # 4
518 4 12.121227 4.953450 23.025265 # 4
519 4 16.292503 11.200501 20.692574 # 4
520 4 12.979820 11.461835 24.410006 # 4
521 4 13.027318 1.839492 24.221861 # 4
522 4 11.779981 4.692141 20.495159 # 4
523 4 8.359556 4.787070 24.412739 # 4
524 4 8.691751 8.402144 24.270555 # 4
525 5 17.260460 0.796304 3.118851 # 5
526 5 17.900764 10.325264 3.388384 # 5
527 5 21.780458 7.856650 3.103823 # 5
528 5 21.803846 3.810677 3.334125 # 5
529 5 22.835611 11.583140 4.042793 # 5
530 5 23.015223 0.621906 4.558436 # 5
531 5 18.011200 4.873386 4.017909 # 5
532 5 18.728558 7.164103 4.650362 # 5
533 5 7.448468 1.411647 24.032446 # 5
534 5 7.456328 12.561691 23.186672 # 5
535 5 12.184493 8.025826 23.947254 # 5
536 5 11.915927 5.867573 23.267862 # 5
537 5 12.314859 11.990031 24.805618 # 5
538 5 12.274859 2.494297 24.513054 # 5
539 5 9.152379 5.098246 24.956387 # 5
540 5 8.432866 9.188185 24.792639 # 5
541 4 22.775511 1.787494 7.396229 # 4
542 4 25.937235 1.672407 3.698901 # 4
543 4 26.465734 11.065378 3.856794 # 4
544 4 27.224564 8.251906 7.441997 # 4
545 4 30.483942 8.040302 3.624834 # 4
546 4 30.473698 4.822630 3.689044 # 4
547 1 29.438553 0.055005 6.516298 # 1
548 2 32.137550 10.572429 6.108976 # 2
549 3 32.128239 2.319633 6.041056 # 3
550 3 26.500240 11.358316 5.435927 # 3
551 3 26.370001 1.539685 5.258516 # 3
552 4 26.853420 12.898933 5.771037 # 4
553 4 25.140726 10.951586 6.177774 # 4
554 4 25.020807 1.827547 6.218467 # 4
555 4 31.926294 9.006498 5.626610 # 4
556 4 31.985126 3.921453 5.642614 # 4
557 4 31.347563 11.872325 5.107552 # 4
558 4 31.150362 1.649770 4.874907 # 4
559 1 25.115429 6.590207 6.590853 # 1
560 2 27.757336 4.158637 6.126053 # 2
561 3 27.851028 8.804021 6.085653 # 3
562 3 30.742373 4.910814 5.344879 # 3
563 3 30.787828 7.982044 5.236852 # 3
564 4 31.231297 6.441964 5.625731 # 4
565 4 29.452478 4.655361 6.223931 # 4
566 4 29.418482 8.385699 6.154352 # 4
567 4 27.656174 2.478230 5.513606 # 4
568 4 27.717194 10.463402 5.979870 # 4
569 4 26.939137 5.343465 5.079056 # 4
570 4 27.066019 8.180546 4.791373 # 4
571 1 24.823368 12.763352 8.462744 # 1
572 2 22.107489 2.362098 8.945012 # 2
573 3 22.100452 10.579476 9.016346 # 3
574 3 27.762548 1.587224 9.625573 # 3
575 3 27.801283 11.409381 9.822894 # 3
576 4 19.441236 1.772324 13.908220 # 4
577 4 27.600821 38.816746 9.181656 # 4
578 4 29.075272 1.899550 8.866064 # 4
579 4 29.177446 11.066461 9.059968 # 4
580 4 22.303411 4.078101 9.186341 # 4
581 4 22.162676 8.989529 9.335158 # 4
582 4 22.996765 1.530472 10.202989 # 4
583 4 22.963736 11.240234 10.239779 # 4
584 1 29.097086 6.417165 8.427611 # 1
585 2 26.481144 8.836992 8.950770 # 2
586 3 26.405834 4.102779 9.011565 # 3
587 3 23.500372 8.057353 9.705400 # 3
588 3 23.414951 4.998015 9.776245 # 3
589 4 23.815819 8.264598 13.824980 # 4
590 4 23.050598 6.525856 9.373219 # 4
591 4 24.797054 8.493492 8.943255 # 4
592 4 24.949881 4.700107 9.156384 # 4
593 4 26.582722 10.532944 9.232208 # 4
594 4 26.481237 2.488328 9.005612 # 4
595 4 27.400412 8.069175 10.168834 # 4
596 4 27.366964 4.751610 10.194791 # 4
597 1 26.141710 0.076720 13.198286 # 1
598 2 28.845718 10.467155 12.636190 # 2
599 3 28.756033 2.279006 12.458097 # 3
600 3 23.185095 11.331986 11.868193 # 3
601 3 23.093548 1.414212 11.773045 # 3
602 4 31.285788 11.031435 7.601646 # 4
603 4 23.647867 12.835597 12.175780 # 4
604 4 21.881256 10.945474 12.669078 # 4
605 4 21.597424 1.680069 12.433213 # 4
606 4 28.691500 8.723068 12.458195 # 4
607 4 28.688528 3.919527 12.397985 # 4
608 4 27.874182 11.350580 11.410906 # 4
609 4 27.875900 1.738725 11.209391 # 4
610 1 21.847681 6.477022 13.171448 # 1
611 2 24.442598 4.008883 12.632582 # 2
612 3 24.511070 8.792997 12.482689 # 3
613 3 27.421495 4.822419 11.850626 # 3
614 3 27.466484 7.885796 11.783488 # 3
615 4 27.128773 4.597624 7.665859 # 4
616 4 27.745628 6.343946 12.207205 # 4
617 4 26.120312 4.315794 12.604575 # 4
618 4 26.050638 8.371474 12.458779 # 4
619 4 24.194223 2.318429 12.495569 # 4
620 4 24.471041 10.464066 12.385299 # 4
621 4 23.580751 4.889819 11.323567 # 4
622 4 23.693153 8.087621 11.251060 # 4
623 1 21.634497 12.883865 14.895105 # 1
624 2 18.892422 2.430168 15.431339 # 2
625 3 18.901009 10.672537 15.532827 # 3
626 3 24.483000 1.595265 16.174746 # 3
627 3 24.565111 11.484218 16.368649 # 3
628 4 16.364904 1.987264 20.482279 # 4
629 4 24.498735 38.851414 15.710433 # 4
630 4 25.835426 2.133673 15.541804 # 4
631 4 26.004429 11.140791 15.604359 # 4
632 4 19.112009 4.144721 15.501990 # 4
633 4 19.011255 9.113908 15.759228 # 4
634 4 19.796913 1.675068 16.677704 # 4
635 4 19.783289 11.352045 16.740255 # 4
636 1 25.848438 6.434781 14.939311 # 1
637 2 23.207952 8.881190 15.367712 # 2
638 3 23.054291 4.123660 15.527755 # 3
639 3 20.221615 8.057390 16.211634 # 3
640 3 20.138445 5.005766 16.305220 # 3
641 4 20.758621 8.336346 20.432411 # 4
642 4 19.693592 6.556112 15.986115 # 4
643 4 21.491344 8.466598 15.309454 # 4
644 4 21.596277 4.746618 15.564152 # 4
645 4 23.410486 10.551016 15.764204 # 4
646 4 23.131155 2.513321 15.842759 # 4
647 4 24.090094 7.963923 16.554453 # 4
648 4 23.828564 4.898779 16.711958 # 4
649 1 22.851387 0.080238 19.523012 # 1
650 2 25.565130 10.546751 19.148867 # 2
651 3 25.531078 2.358058 19.008930 # 3
652 3 19.997732 11.361994 18.393162 # 3
653 3 19.878902 1.498759 18.236830 # 3
654 4 28.239470 11.022172 14.242940 # 4
655 4 20.443207 12.869245 18.774626 # 4
656 4 18.674942 10.946870 19.149841 # 4
657 4 18.392981 1.769570 18.933983 # 4
658 4 25.366207 8.911343 18.814342 # 4
659 4 25.459507 3.936410 18.574282 # 4
660 4 24.698061 11.643332 17.965544 # 4
661 4 24.724039 1.594990 17.812138 # 4
662 1 18.584570 6.600111 19.536770 # 1
663 2 21.228657 4.053196 19.152966 # 2
664 3 21.290916 8.812270 18.988045 # 3
665 3 24.159300 4.891899 18.289528 # 3
666 3 24.248817 7.949897 18.178083 # 3
667 4 23.743423 4.527813 14.175799 # 4
668 4 24.692600 6.397594 18.615267 # 4
669 4 22.892550 4.481815 19.175217 # 4
670 4 22.827532 8.288660 18.832201 # 4
671 4 21.019457 2.347588 18.940130 # 4
672 4 21.274910 10.389997 18.745447 # 4
673 4 20.234196 4.742447 17.867176 # 4
674 4 20.353802 8.113629 17.824337 # 4
675 1 18.390490 13.015304 21.422808 # 1
676 2 15.554618 2.434659 21.922743 # 2
677 3 15.598441 10.771688 22.075171 # 3
678 3 21.220657 1.592608 22.744022 # 3
679 3 21.352833 11.495028 22.817408 # 3
680 4 21.062866 38.852600 22.388128 # 4
681 4 22.487925 2.017640 21.889757 # 4
682 4 22.770210 11.068056 22.207495 # 4
683 4 15.743681 4.048329 22.471758 # 4
684 4 15.732199 9.170029 22.316305 # 4
685 4 16.164961 1.353372 23.168522 # 4
686 4 16.379059 11.629465 23.209604 # 4
687 1 22.598904 6.391268 21.398415 # 1
688 2 19.978348 8.855436 21.953384 # 2
689 3 19.883827 4.185597 22.006079 # 3
690 3 16.957926 8.094826 22.644484 # 3
691 3 16.932367 5.074049 22.773493 # 3
692 4 16.519623 6.564541 22.267609 # 4
693 4 18.283026 8.597139 21.834915 # 4
694 4 18.273502 4.582790 21.944113 # 4
695 4 20.276917 10.521818 22.276392 # 4
696 4 19.933985 2.549199 22.313866 # 4
697 4 20.676146 7.646619 23.012774 # 4
698 4 20.499554 4.934456 23.344761 # 4
699 4 24.861513 11.108764 20.686331 # 4
700 4 21.495371 11.331409 24.443771 # 4
701 4 21.739143 1.663375 24.346577 # 4
702 4 20.671562 4.626541 20.669153 # 4
703 4 17.399986 4.954413 24.348040 # 4
704 4 17.236805 8.084822 24.260895 # 4
705 5 25.909252 0.838988 3.267377 # 5
706 5 26.187025 10.202465 3.595460 # 5
707 5 30.400146 7.145007 3.288358 # 5
708 5 31.004320 4.053750 3.386724 # 5
709 5 31.369865 11.625090 4.240501 # 5
710 5 31.216768 0.696868 4.763951 # 5
711 5 26.590435 4.980900 4.303445 # 5
712 5 27.340059 7.327212 4.478025 # 5
713 5 16.610806 1.706700 23.919832 # 5
714 5 16.739725 11.172991 24.016737 # 5
715 5 21.237146 8.029485 23.721342 # 5
716 5 20.470116 5.921196 23.333635 # 5
717 5 22.192295 11.788398 24.998056 # 5
718 5 21.387342 2.416628 24.911596 # 5
719 5 16.740437 5.102302 24.971222 # 5
720 5 17.217342 9.003754 24.711740 # 5
721 4 31.522524 1.980637 7.442875 # 4
722 4 34.778488 1.892635 3.778044 # 4
723 4 34.799728 11.183867 3.827812 # 4
724 4 -15.986230 8.216327 7.433800 # 4
725 4 -12.949562 8.302817 3.683872 # 4
726 4 -12.588809 4.597631 3.767016 # 4
727 1 -13.807102 0.108152 6.546257 # 1
728 2 -11.072479 10.619063 6.118540 # 2
729 3 -11.100927 2.340693 6.080188 # 3
730 3 35.099575 11.363217 5.445197 # 3
731 3 35.067726 1.544564 5.315701 # 3
732 4 -16.261732 12.875792 5.806264 # 4
733 4 33.775547 10.970803 6.267942 # 4
734 4 33.652176 1.754104 6.129175 # 4
735 4 -11.343939 8.953032 5.613143 # 4
736 4 -11.218800 3.966219 5.996069 # 4
737 4 -11.863804 11.738203 5.003915 # 4
738 4 -11.751732 1.679745 4.701203 # 4
739 1 33.756187 6.551519 6.527130 # 1
740 2 -15.509763 4.239618 6.071113 # 2
741 3 -15.406683 8.761866 6.063208 # 3
742 3 -12.463494 4.855928 5.368495 # 3
743 3 -12.514301 7.991260 5.226996 # 3
744 4 -11.950283 6.467732 5.401283 # 4
745 4 -13.795575 4.727035 6.248524 # 4
746 4 -13.851661 8.203085 6.147814 # 4
747 4 -15.600348 2.482913 5.881503 # 4
748 4 -15.503983 10.365069 5.868720 # 4
749 4 -16.275972 5.168595 4.907891 # 4
750 4 -16.257889 7.909646 4.883300 # 4
751 1 33.492058 12.812737 8.468598 # 1
752 2 30.771772 2.373347 8.929982 # 2
753 3 30.792765 10.571197 9.030499 # 3
754 3 -15.460726 1.558127 9.688028 # 3
755 3 -15.346381 11.425774 9.813817 # 3
756 4 28.162426 1.854472 13.904806 # 4
757 4 -15.594496 38.830357 9.337307 # 4
758 4 -14.126070 1.870845 8.840302 # 4
759 4 -13.995041 11.060934 8.969311 # 4
760 4 30.873819 4.049540 9.384928 # 4
761 4 30.817766 8.984974 9.323937 # 4
762 4 31.678776 1.453436 10.091352 # 4
763 4 31.648193 11.326211 10.204941 # 4
764 1 -14.155134 6.353927 8.494653 # 1
765 2 -16.769068 8.797741 8.898951 # 2
766 3 -16.895140 4.080507 9.031571 # 3
767 3 32.108486 7.987118 9.709986 # 3
768 3 32.082726 4.975327 9.776833 # 3
769 4 -19.252150 8.330026 13.874165 # 4