LAMMPS data file. CGCMM style. atom_style atomic generated by VMD/TopoTools v1.8 on Wed Aug 27 16:28:44 CEST 2025
 20949 atoms
 5 atom types
 -30.755175 21.102827  xlo xhi
 0.174168 64.687049  ylo yhi
 -15.610776 111.959964  zlo zhi
 -31.744268 0.890632 0.190096 xy xz yz

 Masses

1 39.0983
2 26.981538
3 28.0855
4 15.9994
5 2

 Atoms # atomic

1 4 0.289848 4.757047 12.115509 # 4
2 4 5.333232 2.247635 38.202454 # 4
3 1 2.928183 5.514271 12.546698 # 1
4 1 2.240628 0.940609 24.987780 # 1
5 1 -0.968084 5.472105 18.767941 # 1
6 1 6.208496 0.803636 18.537548 # 1
7 2 6.180156 5.052155 22.631933 # 2
8 2 -0.875316 1.238274 14.638350 # 2
9 2 1.516451 4.905344 16.176981 # 2
10 2 3.722740 1.351764 21.092409 # 2
11 3 5.814640 4.767651 14.390990 # 3
12 3 -0.589695 1.522609 22.816908 # 3
13 3 1.826205 4.942291 20.914066 # 3
14 3 3.421537 1.360192 16.405584 # 3
15 3 0.529965 4.271292 23.476450 # 3
16 3 4.677991 1.942453 13.808121 # 3
17 3 4.526710 4.139197 17.026983 # 3
18 3 0.664945 2.194034 20.220078 # 3
19 3 0.057266 4.101817 13.592906 # 3
20 3 5.096652 2.250076 23.670105 # 3
21 3 4.758842 4.154175 20.034590 # 3
22 3 0.472821 2.106000 17.241430 # 3
23 4 -23.151564 64.582916 23.322853 # 4
24 4 -3.674141 6.110618 14.059559 # 4
25 4 -27.647707 64.444183 16.806032 # 4
26 4 1.286260 6.349880 20.551764 # 4
27 4 1.001004 4.752250 24.940834 # 4
28 4 4.228182 1.459209 12.294366 # 4
29 4 5.111370 4.638823 18.472231 # 4
30 4 0.193960 1.687677 18.742426 # 4
31 4 -0.816272 5.049883 23.050873 # 4
32 4 5.975282 1.129553 14.163914 # 4
33 4 3.181492 4.856594 16.520912 # 4
34 4 1.999698 1.390329 20.680864 # 4
35 4 -1.351174 4.817726 14.019248 # 4
36 4 6.600919 1.692035 23.437542 # 4
37 4 3.306955 4.945749 20.320858 # 4
38 4 1.865495 1.372502 16.869179 # 4
39 4 5.961063 4.873657 20.853596 # 4
40 4 -0.687230 1.485072 16.364000 # 4
41 4 1.365016 4.704208 14.438190 # 4
42 4 3.981397 1.604258 22.770475 # 4
43 4 5.729569 4.399028 15.969548 # 4
44 4 -0.548223 1.768867 21.206329 # 4
45 4 1.792749 4.541119 22.529110 # 4
46 4 3.399625 1.670467 14.829577 # 4
47 4 5.138305 3.881164 23.468412 # 4
48 4 -0.119390 2.506997 13.685650 # 4
49 4 0.600939 3.720346 16.995857 # 4
50 4 4.580750 2.559535 20.235132 # 4
51 4 4.992355 3.592118 13.586656 # 4
52 4 0.399066 2.597756 23.471474 # 4
53 4 0.851845 3.815348 20.234240 # 4
54 4 4.291760 2.511371 17.205456 # 4
55 1 3.623280 5.648203 25.269203 # 1
56 1 2.991800 0.945213 37.671246 # 1
57 1 -0.407647 5.824648 31.669428 # 1
58 1 6.772290 1.084979 31.527443 # 1
59 2 6.734677 5.269663 35.530735 # 2
60 2 -0.327902 1.499127 27.532181 # 2
61 2 2.129098 5.200188 29.114183 # 2
62 2 4.349650 1.688877 34.003464 # 2
63 3 6.378242 5.042843 27.400650 # 3
64 3 0.134204 1.768948 35.828484 # 3
65 3 2.404603 5.162927 33.833794 # 3
66 3 4.062451 1.640903 29.308987 # 3
67 3 1.158243 4.515687 36.451927 # 3
68 3 5.370092 2.262562 26.710878 # 3
69 3 5.163206 4.425642 29.985489 # 3
70 3 1.309218 2.422795 33.189430 # 3
71 3 0.753084 4.311746 26.496946 # 3
72 3 5.751863 2.558352 36.615471 # 3
73 3 5.344409 4.443000 33.023331 # 3
74 3 1.045127 2.384739 30.193689 # 3
75 4 9.287010 0.383967 36.170761 # 4
76 4 -2.906584 6.442054 26.918692 # 4
77 4 4.778535 0.279160 29.782780 # 4
78 4 1.798149 6.522235 33.359741 # 4
79 4 1.369499 5.111036 37.936085 # 4
80 4 4.796557 1.808289 25.183859 # 4
81 4 5.683376 4.873878 31.496563 # 4
82 4 0.721578 1.926190 31.732061 # 4
83 4 -0.168852 5.053686 35.906940 # 4
84 4 6.613482 1.459675 27.231876 # 4
85 4 3.849532 5.130696 29.413212 # 4
86 4 2.691918 1.821541 33.613731 # 4
87 4 -0.780744 5.015105 26.688173 # 4
88 4 7.221361 1.896668 36.316193 # 4
89 4 3.947078 5.106642 33.411278 # 4
90 4 2.459824 1.557333 29.845928 # 4
91 4 6.546305 5.040743 33.866451 # 4
92 4 -0.097341 1.659018 29.274160 # 4
93 4 1.926697 5.035774 27.332527 # 4
94 4 4.579440 1.923388 35.726433 # 4
95 4 6.400535 4.857781 29.019783 # 4
96 4 0.161735 1.946927 34.253498 # 4
97 4 2.417115 4.882138 35.446926 # 4
98 4 4.149251 2.056329 27.746881 # 4
99 4 5.764884 4.126344 36.273960 # 4
100 4 0.525766 2.790616 26.726055 # 4
101 4 1.288524 3.910290 29.930765 # 4
102 4 5.257650 2.868031 33.142353 # 4
103 4 5.644228 3.852537 26.670183 # 4
104 4 1.144997 2.856028 36.564190 # 4
105 4 1.489068 4.029301 33.119907 # 4
106 4 4.971542 2.819125 30.008711 # 4
107 4 -2.569590 10.919924 12.098289 # 4
108 4 2.203014 8.601727 38.123360 # 4
109 1 -0.208076 11.962554 12.556777 # 1
110 1 -0.957184 7.379964 24.993521 # 1
111 1 -4.190297 11.945934 18.763987 # 1
112 1 3.002868 7.205573 18.490858 # 1
113 2 3.024374 11.476922 22.657957 # 2
114 2 -4.053731 7.696939 14.618960 # 2
115 2 -1.616813 11.329011 16.174810 # 2
116 2 0.526871 7.858406 21.063959 # 2
117 3 2.675522 11.196140 14.374661 # 3
118 3 -3.694626 7.936223 22.848164 # 3
119 3 -1.403805 11.380611 20.887913 # 3
120 3 0.269838 7.877259 16.354559 # 3
121 3 -2.598249 10.718415 23.547888 # 3
122 3 1.532517 8.435806 13.710271 # 3
123 3 1.377515 10.563396 17.057474 # 3
124 3 -2.530493 8.580379 20.204006 # 3
125 3 -3.091166 10.469306 13.573516 # 3
126 3 1.885117 8.738134 23.638849 # 3
127 3 1.616847 10.654791 20.030891 # 3
128 3 -2.731762 8.503123 17.150982 # 3
129 4 5.529442 6.589798 23.210976 # 4
130 4 -6.825015 12.596312 14.016826 # 4
131 4 0.969891 6.458187 16.639551 # 4
132 4 -2.133363 12.738747 20.548189 # 4
133 4 -1.946714 11.025898 25.029369 # 4
134 4 0.965418 7.804928 12.320260 # 4
135 4 1.962718 11.074747 18.500807 # 4
136 4 -3.077619 8.142748 18.705050 # 4
137 4 -3.987234 11.451070 23.275528 # 4
138 4 2.877232 7.819133 14.277195 # 4
139 4 0.058671 11.360965 16.795189 # 4
140 4 -1.152080 7.848029 20.550360 # 4
141 4 -4.521119 11.234582 13.936583 # 4
142 4 3.384763 8.062015 23.362400 # 4
143 4 0.094803 11.380906 20.263453 # 4
144 4 -1.249362 7.745687 16.940620 # 4
145 4 2.813880 11.339221 20.906029 # 4
146 4 -3.772478 7.743559 16.291794 # 4
147 4 -1.796728 11.057045 14.413954 # 4
148 4 0.769256 8.105066 22.727484 # 4
149 4 2.511012 10.760715 15.914695 # 4
150 4 -3.711533 8.110364 21.217043 # 4
151 4 -1.403576 11.113528 22.488924 # 4
152 4 0.372587 8.281397 14.815800 # 4
153 4 1.996106 10.324687 23.500687 # 4
154 4 -3.232300 8.916508 13.678125 # 4
155 4 -2.534676 10.078727 16.981569 # 4
156 4 1.466148 9.053114 20.194307 # 4
157 4 1.824024 10.082726 13.517001 # 4
158 4 -2.757201 9.097544 23.514339 # 4
159 4 -2.323250 10.206708 20.176834 # 4
160 4 1.132735 8.930360 17.215660 # 4
161 1 0.450143 12.137450 25.242796 # 1
162 1 -0.212534 7.466745 37.643055 # 1
163 1 -3.516450 12.239695 31.774035 # 1
164 1 3.583994 7.500264 31.520296 # 1
165 2 3.602865 11.750538 35.527550 # 2
166 2 -3.476551 7.956830 27.585629 # 2
167 2 -1.072035 11.610806 29.121582 # 2
168 2 1.155033 8.030154 33.975140 # 2
169 3 3.256007 11.531753 27.416855 # 3
170 3 -3.065665 8.271875 35.831169 # 3
171 3 -0.724375 11.663130 33.844376 # 3
172 3 0.867347 8.083773 29.304903 # 3
173 3 -2.051677 10.973076 36.468513 # 3
174 3 2.150045 8.726442 26.702461 # 3
175 3 1.946818 10.902572 29.979748 # 3
176 3 -1.854984 8.871037 33.124241 # 3
177 3 -2.503043 10.755487 26.563662 # 3
178 3 2.549706 8.960214 36.557041 # 3
179 3 2.150494 10.879071 33.042343 # 3
180 3 -2.068984 8.770356 30.153244 # 3
181 4 6.190773 6.817986 36.116417 # 4
182 4 -6.092962 12.934889 26.970997 # 4
183 4 1.637467 6.728368 29.658655 # 4
184 4 -1.435920 13.047099 33.393417 # 4
185 4 -1.549058 11.439598 37.959938 # 4
186 4 1.631440 8.336309 25.214981 # 4
187 4 2.407676 11.342541 31.489803 # 4
188 4 -2.498738 8.394743 31.698004 # 4
189 4 -3.344894 11.712298 36.015118 # 4
190 4 3.403136 7.941193 27.179449 # 4
191 4 0.589190 11.544213 29.674601 # 4
192 4 -0.535940 8.098353 33.634907 # 4
193 4 -3.881216 11.582084 26.861921 # 4
194 4 4.030736 8.311491 36.266819 # 4
195 4 0.857917 11.744761 33.512058 # 4
196 4 -0.662533 8.048255 29.887262 # 4
197 4 3.472045 11.388396 33.861217 # 4
198 4 -3.277201 8.149704 29.261143 # 4
199 4 -1.248621 11.440156 27.424892 # 4
200 4 1.508720 8.085927 35.686119 # 4
201 4 3.231928 11.257205 29.074507 # 4
202 4 -3.030162 8.597466 34.224667 # 4
203 4 -0.864533 11.283817 35.417961 # 4
204 4 0.756909 8.332298 27.675056 # 4
205 4 2.579997 10.539613 36.338131 # 4
206 4 -2.562788 9.164024 26.739202 # 4
207 4 -1.852101 10.385447 29.986637 # 4
208 4 1.859477 9.283330 33.162003 # 4
209 4 2.397434 10.343416 26.718407 # 4
210 4 -2.184508 9.381744 36.603100 # 4
211 4 -1.490463 10.480582 32.959930 # 4
212 4 1.870567 9.236041 29.956533 # 4
213 4 9.083531 4.435376 12.082850 # 4
214 4 13.972237 2.272209 38.268150 # 4
215 1 11.607092 5.482501 12.591348 # 1
216 1 10.795895 0.967408 24.961885 # 1
217 1 7.753571 5.494260 18.738472 # 1
218 1 14.835276 0.806719 18.498001 # 1
219 2 14.812225 5.021942 22.613308 # 2
220 2 7.677482 1.188452 14.561168 # 2
221 2 10.139463 4.898508 16.139345 # 2
222 2 12.344222 1.384902 21.073528 # 2
223 3 14.416321 4.753793 14.373513 # 3
224 3 8.070455 1.542522 22.845867 # 3
225 3 10.451851 4.930069 20.833822 # 3
226 3 12.081103 1.315230 16.381731 # 3
227 3 9.175213 4.278519 23.520590 # 3
228 3 13.333703 1.973327 13.759387 # 3
229 3 13.141055 4.104894 17.003895 # 3
230 3 9.345158 2.201725 20.194567 # 3
231 3 8.734035 4.092735 13.624162 # 3
232 3 13.768252 2.234839 23.640760 # 3
233 3 13.418002 4.168643 20.085365 # 3
234 3 9.134119 2.140556 17.156723 # 3
235 4 17.456507 0.196049 23.290070 # 4
236 4 5.083663 6.145772 13.952402 # 4
237 4 -19.070787 64.424797 16.788935 # 4
238 4 9.796036 6.309640 20.389364 # 4
239 4 9.726318 4.778446 24.977959 # 4
240 4 12.953923 1.356113 12.334677 # 4
241 4 13.681735 4.569676 18.458328 # 4
242 4 8.754800 1.818709 18.733370 # 4
243 4 7.811104 5.014403 23.129713 # 4
244 4 14.654193 1.338838 14.331540 # 4
245 4 11.801039 4.899190 16.618883 # 4
246 4 10.650453 1.432493 20.662369 # 4
247 4 7.391868 4.981368 13.996029 # 4
248 4 15.220432 1.516691 23.477854 # 4
249 4 11.911057 4.871221 20.249550 # 4
250 4 10.616062 1.394452 17.092300 # 4
251 4 14.637451 4.827936 20.931923 # 4
252 4 8.056996 1.351452 16.315521 # 4
253 4 9.994781 4.714862 14.401704 # 4
254 4 12.685873 1.477887 22.763966 # 4
255 4 14.413382 4.475411 16.012671 # 4
256 4 8.067104 1.859920 21.253275 # 4
257 4 10.334785 4.708945 22.483313 # 4
258 4 12.058096 1.645286 14.729052 # 4
259 4 13.883932 3.749083 23.370438 # 4
260 4 8.424142 2.527735 13.674681 # 4
261 4 9.150260 3.673438 16.835117 # 4
262 4 13.289368 2.632318 20.165354 # 4
263 4 13.542632 3.646970 13.567520 # 4
264 4 9.012951 2.661699 23.625710 # 4
265 4 9.510586 3.790703 20.203114 # 4
266 4 12.985497 2.468315 17.114750 # 4
267 1 12.285778 5.619870 25.187044 # 1
268 1 11.644568 0.943011 37.665634 # 1
269 1 8.300206 5.743956 31.673504 # 1
270 1 15.428997 1.034593 31.452553 # 1
271 2 15.386642 5.304268 35.556763 # 2
272 2 8.285169 1.523567 27.568665 # 2
273 2 10.786280 5.231470 29.113804 # 2
274 2 12.928580 1.579672 34.056911 # 2
275 3 15.015071 5.037539 27.396057 # 3
276 3 8.752620 1.811306 35.845455 # 3
277 3 11.098477 5.209510 33.858665 # 3
278 3 12.641636 1.632503 29.291254 # 3
279 3 9.803530 4.568816 36.471447 # 3
280 3 13.904110 2.275315 26.731926 # 3
281 3 13.782324 4.430964 29.976433 # 3
282 3 9.996310 2.473070 33.142105 # 3
283 3 9.313996 4.322314 26.510593 # 3
284 3 14.434772 2.512380 36.615730 # 3
285 3 13.982997 4.444641 33.037750 # 3
286 3 9.758095 2.351212 30.124928 # 3
287 4 17.940582 0.297919 36.245136 # 4
288 4 5.685171 6.396717 26.920607 # 4
289 4 13.302951 0.253275 29.764925 # 4
290 4 10.452524 6.577283 33.509884 # 4
291 4 10.188356 5.238525 37.926132 # 4
292 4 13.323466 1.845888 25.236416 # 4
293 4 14.402727 4.784220 31.437756 # 4
294 4 9.484710 1.927258 31.747755 # 4
295 4 8.437683 5.222792 35.914337 # 4
296 4 15.264956 1.497673 27.054556 # 4
297 4 12.499076 5.273559 29.563995 # 4
298 4 11.289490 1.709035 33.728928 # 4
299 4 7.881640 5.160387 26.795713 # 4
300 4 15.875206 1.758071 36.421688 # 4
301 4 12.628940 5.206973 33.411530 # 4
302 4 11.050696 1.477993 29.735834 # 4
303 4 15.206410 5.072753 33.861599 # 4
304 4 8.508398 1.762908 29.320719 # 4
305 4 10.523335 4.963674 27.409966 # 4
306 4 13.293653 1.816440 35.740334 # 4
307 4 15.034683 4.762208 29.000393 # 4
308 4 8.812385 2.260133 34.220203 # 4
309 4 11.048117 4.803352 35.444878 # 4
310 4 12.642027 1.884958 27.691511 # 4
311 4 14.508747 4.098904 36.423733 # 4
312 4 9.212858 2.694149 26.548355 # 4
313 4 9.998829 3.878307 29.850651 # 4
314 4 13.763426 2.876422 33.197086 # 4
315 4 14.087671 3.870289 26.764074 # 4
316 4 9.679833 2.942763 36.670963 # 4
317 4 10.319707 4.069610 32.995266 # 4
318 4 13.372882 2.881459 30.022869 # 4
319 4 5.962771 10.806750 11.999421 # 4
320 4 11.029499 8.583230 38.179611 # 4
321 1 8.380966 11.942333 12.450893 # 1
322 1 7.654685 7.423049 24.987654 # 1
323 1 4.573201 11.914426 18.745745 # 1
324 1 11.717991 7.216623 18.546734 # 1
325 2 11.622608 11.475251 22.661911 # 2
326 2 4.575676 7.687440 14.608242 # 2
327 2 6.995378 11.337552 16.192287 # 2
328 2 9.214293 7.810570 20.999281 # 2
329 3 11.292839 11.137197 14.389074 # 3
330 3 4.873781 7.991164 22.831963 # 3
331 3 7.254398 11.379269 20.895441 # 3
332 3 8.926236 7.784224 16.349453 # 3
333 3 6.036240 10.745046 23.495331 # 3
334 3 10.176001 8.359612 13.750587 # 3
335 3 10.026565 10.490897 16.979528 # 3
336 3 6.130922 8.600772 20.165224 # 3
337 3 5.561994 10.552292 13.674426 # 3
338 3 10.580405 8.712846 23.638973 # 3
339 3 10.197037 10.623102 20.022728 # 3
340 3 6.015572 8.563272 17.166548 # 3
341 4 14.242654 6.582459 23.264046 # 4
342 4 1.994914 12.591864 14.105995 # 4
343 4 9.653460 6.437842 16.840733 # 4
344 4 6.428154 12.721636 20.494738 # 4
345 4 6.445654 11.086475 25.072741 # 4
346 4 9.806880 7.663120 12.314519 # 4
347 4 10.519254 10.925322 18.490858 # 4
348 4 5.653491 8.204383 18.722397 # 4
349 4 4.681481 11.398489 23.057762 # 4
350 4 11.459377 7.588279 14.301946 # 4
351 4 8.665715 11.157439 16.500244 # 4
352 4 7.536131 7.859978 20.603302 # 4
353 4 4.180214 11.396671 14.000751 # 4
354 4 12.017945 7.946505 23.384726 # 4
355 4 8.736975 11.402512 20.301979 # 4
356 4 7.427496 7.817861 16.929777 # 4
357 4 11.351879 11.240066 20.906408 # 4
358 4 4.891370 7.830839 16.331087 # 4
359 4 6.805037 11.216563 14.441635 # 4
360 4 9.489288 8.025061 22.720718 # 4
361 4 11.286962 10.863053 15.971465 # 4
362 4 4.923230 8.266608 21.212835 # 4
363 4 7.309711 11.139295 22.593405 # 4
364 4 8.910316 8.188653 14.746274 # 4
365 4 10.775458 10.254406 23.568810 # 4
366 4 5.275627 9.047204 13.846774 # 4
367 4 6.011239 10.116270 16.892651 # 4
368 4 10.058151 9.047468 20.084471 # 4
369 4 10.465505 9.960134 13.592142 # 4
370 4 5.875339 9.102639 23.556818 # 4
371 4 6.410914 10.236096 20.200178 # 4
372 4 9.826001 8.899103 17.151237 # 4
373 1 9.090707 12.084584 25.222897 # 1
374 1 8.422682 7.411868 37.615372 # 1
375 1 5.117708 12.204934 31.695707 # 1
376 1 12.238191 7.455834 31.446302 # 1
377 2 12.195943 11.733698 35.569393 # 2
378 2 5.137399 7.920677 27.568535 # 2
379 2 7.563238 11.589172 29.151054 # 2
380 2 9.765013 8.089355 34.046967 # 2
381 3 11.889488 11.554472 27.380880 # 3
382 3 5.508065 8.218174 35.813179 # 3
383 3 7.885336 11.598637 33.856117 # 3
384 3 9.490438 8.076543 29.258846 # 3
385 3 6.574059 11.006388 36.440445 # 3
386 3 10.820992 8.728598 26.675795 # 3
387 3 10.590701 10.859781 30.011137 # 3
388 3 6.763490 8.862050 33.153835 # 3
389 3 6.153065 10.715282 26.597088 # 3
390 3 11.238523 8.975347 36.582302 # 3
391 3 10.832444 10.910192 33.015804 # 3
392 3 6.522202 8.836986 30.144447 # 3
393 4 14.869934 6.783423 36.082993 # 4
394 4 2.569038 12.875628 26.901978 # 4
395 4 9.990715 6.614140 29.761990 # 4
396 4 7.223315 12.984264 33.437050 # 4
397 4 7.012410 11.564219 37.905724 # 4
398 4 10.191732 8.382821 25.256186 # 4
399 4 11.176482 11.239346 31.506266 # 4
400 4 6.169163 8.341261 31.740866 # 4
401 4 5.179777 11.732450 36.203930 # 4
402 4 12.064211 7.780478 27.127399 # 4
403 4 9.254181 11.624432 29.693739 # 4
404 4 8.084895 8.052917 33.535023 # 4
405 4 4.757802 11.466833 26.883995 # 4
406 4 12.593225 8.153662 36.203033 # 4
407 4 9.440734 11.668698 33.467533 # 4
408 4 7.985720 8.258604 29.738518 # 4
409 4 11.973418 11.593844 33.888515 # 4
410 4 5.347435 8.148390 29.288448 # 4
411 4 7.264304 11.377351 27.488550 # 4
412 4 9.973758 8.366161 35.766743 # 4
413 4 11.804456 11.315075 29.032541 # 4
414 4 5.559535 8.666179 34.229897 # 4
415 4 7.749843 11.294250 35.449471 # 4
416 4 9.582173 8.389054 27.707844 # 4
417 4 11.329233 10.570814 36.582043 # 4
418 4 6.020679 9.056109 26.663424 # 4
419 4 6.668608 10.443273 30.088825 # 4
420 4 10.640326 9.362501 33.344173 # 4
421 4 11.237113 10.222352 26.735628 # 4
422 4 6.531903 9.290538 36.655907 # 4
423 4 7.071144 10.458945 32.985573 # 4
424 4 10.506108 9.144412 29.985998 # 4
425 5 6.115114 1.906660 38.666172 # 5
426 5 2.335578 5.330303 38.109833 # 5
427 5 2.789841 8.290905 38.861225 # 5
428 5 -0.570894 11.641718 37.873825 # 5
429 5 14.749694 1.798303 38.747944 # 5
430 5 11.080915 5.616433 38.016197 # 5
431 5 11.513093 7.774945 38.393681 # 5
432 5 8.001879 11.714446 38.018745 # 5
433 5 -0.178158 4.197632 11.424075 # 5
434 5 3.476771 0.884256 12.198432 # 5
435 5 -2.737452 10.236006 11.436834 # 5
436 5 0.219965 7.295582 12.482530 # 5
437 5 8.714534 3.748797 11.536847 # 5
438 5 12.145292 0.863542 12.233896 # 5
439 5 5.120546 10.825398 11.568871 # 5
440 5 8.898211 7.364178 12.235169 # 5
441 4 17.737745 4.411293 12.004395 # 4
442 4 22.488810 2.158356 38.102943 # 4
443 1 20.169430 5.554397 12.506896 # 1
444 1 19.446594 1.024230 25.017632 # 1
445 1 16.353083 5.503587 18.728907 # 1
446 1 23.531574 0.754928 18.491621 # 1
447 2 23.430616 4.983998 22.654129 # 2
448 2 16.362206 1.223974 14.656975 # 2
449 2 18.767824 4.901063 16.123146 # 2
450 2 20.983072 1.444655 21.057199 # 2
451 3 23.058285 4.761796 14.337280 # 3
452 3 16.725748 1.530192 22.857859 # 3
453 3 19.084934 4.958223 20.924654 # 3
454 3 20.684748 1.353510 16.341545 # 3
455 3 17.809538 4.285345 23.555416 # 3
456 3 21.921278 1.979309 13.803782 # 3
457 3 21.769894 4.200016 17.045738 # 3
458 3 17.970522 2.155884 20.252356 # 3
459 3 17.313625 4.103778 13.588568 # 3
460 3 22.370697 2.299915 23.641399 # 3
461 3 22.029358 4.216400 20.035738 # 3
462 3 17.715445 2.087591 17.209026 # 3
463 4 26.012617 0.161951 23.233809 # 4
464 4 13.646340 6.125365 14.020270 # 4
465 4 -10.333214 64.564247 16.813047 # 4
466 4 18.405954 6.344964 20.469223 # 4
467 4 18.444626 4.686271 25.013424 # 4
468 4 21.532326 1.146549 12.425508 # 4
469 4 22.407345 4.601453 18.512928 # 4
470 4 17.415325 1.822842 18.779297 # 4
471 4 16.371662 5.023649 23.234831 # 4
472 4 23.327990 1.393225 14.268523 # 4
473 4 20.448248 5.031816 16.654093 # 4
474 4 19.344427 1.502699 20.620779 # 4
475 4 15.928238 4.931758 13.880068 # 4
476 4 23.899107 1.746325 23.339951 # 4
477 4 20.559021 4.792212 20.375206 # 4
478 4 19.095100 1.353254 16.823380 # 4
479 4 23.165203 4.862050 20.905134 # 4
480 4 16.577785 1.298893 16.384922 # 4
481 4 18.511879 4.826693 14.408213 # 4
482 4 21.262398 1.610963 22.706816 # 4
483 4 22.898888 4.464628 15.967636 # 4
484 4 16.790224 1.705863 21.278915 # 4
485 4 18.959011 4.795193 22.617771 # 4
486 4 20.665634 1.678531 14.778165 # 4
487 4 22.373821 3.878297 23.479511 # 4
488 4 17.087048 2.557312 13.803528 # 4
489 4 17.892220 3.687088 17.046503 # 4
490 4 22.010489 2.626101 20.192905 # 4
491 4 22.181158 3.595503 13.473499 # 4
492 4 17.702766 2.666813 23.524670 # 4
493 4 18.098335 3.837900 20.311039 # 4
494 4 21.484926 2.597039 17.098042 # 4
495 1 20.928143 5.669699 25.255676 # 1
496 1 20.279598 0.964253 37.594833 # 1
497 1 16.898546 5.743266 31.713181 # 1
498 1 24.084867 1.012459 31.491850 # 1
499 2 24.107527 5.268701 35.577679 # 2
500 2 16.932892 1.524179 27.572489 # 2
501 2 19.413317 5.223876 29.139444 # 2
502 2 21.589056 1.579997 34.014938 # 2
503 3 23.666428 5.082680 27.444031 # 3
504 3 17.343815 1.710958 35.828873 # 3
505 3 19.700737 5.152853 33.875248 # 3
506 3 21.333111 1.619816 29.271606 # 3
507 3 18.358557 4.503944 36.442356 # 3
508 3 22.600094 2.289394 26.724787 # 3
509 3 22.452827 4.422632 29.982813 # 3
510 3 18.553581 2.424570 33.151291 # 3
511 3 17.989788 4.357971 26.593256 # 3
512 3 23.070162 2.528197 36.649406 # 3
513 3 22.627342 4.435974 33.026905 # 3
514 3 18.323128 2.415763 30.176596 # 3
515 4 26.660324 0.373761 36.346554 # 4
516 4 14.445694 6.421615 26.982220 # 4
517 4 21.885431 0.202968 29.739666 # 4
518 4 18.935200 6.513776 33.479141 # 4
519 4 18.722694 4.986286 38.026272 # 4
520 4 22.069368 1.938068 25.173525 # 4
521 4 22.832180 4.957335 31.494267 # 4
522 4 17.902494 2.044785 31.693790 # 4
523 4 17.072451 5.383221 36.043064 # 4
524 4 23.918026 1.561653 27.181744 # 4
525 4 21.117516 5.147021 29.532614 # 4
526 4 19.960300 1.693462 33.508614 # 4
527 4 16.553337 5.086010 26.925451 # 4
528 4 24.519783 1.805537 36.411484 # 4
529 4 21.220787 5.245044 33.495728 # 4
530 4 19.758625 1.707002 29.827938 # 4
531 4 23.861752 5.046311 33.819633 # 4
532 4 17.081917 1.750309 29.329523 # 4
533 4 19.173698 4.996313 27.459337 # 4
534 4 21.900211 1.939992 35.742508 # 4
535 4 23.731977 4.818111 29.088545 # 4
536 4 17.391562 2.058548 34.227859 # 4
537 4 19.613701 4.917462 35.509438 # 4
538 4 21.243210 1.934222 27.662815 # 4
539 4 23.160538 4.181915 36.489811 # 4
540 4 17.735817 2.759257 26.640331 # 4
541 4 18.547165 4.016886 30.113827 # 4
542 4 22.519609 2.858959 33.167107 # 4
543 4 22.666954 3.921866 26.793547 # 4
544 4 18.243843 2.877043 36.549133 # 4
545 4 18.812969 4.016269 33.063389 # 4
546 4 22.342621 2.815917 29.877569 # 4
547 4 14.804595 10.653299 12.016899 # 4
548 4 19.606255 8.613639 38.151035 # 4
549 1 17.054777 11.925767 12.589945 # 1
550 1 16.299490 7.383315 24.991098 # 1
551 1 13.102345 11.915976 18.704540 # 1
552 1 20.279659 7.244577 18.516756 # 1
553 2 20.264864 11.540623 22.632442 # 2
554 2 13.184157 7.629901 14.655698 # 2
555 2 15.661278 11.430305 16.181318 # 2
556 2 17.806746 7.849188 21.069191 # 2
557 3 19.864264 11.177386 14.387161 # 3
558 3 13.550439 7.932354 22.849825 # 3
559 3 15.889524 11.417621 20.873116 # 3
560 3 17.494249 7.784171 16.357237 # 3
561 3 14.653821 10.766742 23.551846 # 3
562 3 18.848288 8.414324 13.754156 # 3
563 3 18.677727 10.602051 17.065382 # 3
564 3 14.760017 8.584020 20.223143 # 3
565 3 14.212474 10.444282 13.620717 # 3
566 3 19.258266 8.703400 23.620733 # 3
567 3 18.924440 10.663287 20.147621 # 3
568 3 14.615843 8.588262 17.138098 # 3
569 4 22.912888 6.645419 23.131115 # 4
570 4 10.635023 12.538399 14.116968 # 4
571 4 18.057606 6.378993 16.749132 # 4
572 4 15.385637 12.849173 20.361300 # 4
573 4 15.205688 11.154161 25.036896 # 4
574 4 18.395130 7.841157 12.302783 # 4
575 4 19.290417 11.006633 18.508335 # 4
576 4 14.288241 8.210712 18.726480 # 4
577 4 13.256765 11.522425 23.191200 # 4
578 4 20.134348 7.673354 14.203841 # 4
579 4 17.303312 11.339509 16.769800 # 4
580 4 16.160065 7.910390 20.578552 # 4
581 4 12.775636 11.190491 13.656819 # 4
582 4 20.681364 7.918247 23.426569 # 4
583 4 17.442608 11.413027 20.518085 # 4
584 4 16.053587 7.877299 16.987566 # 4
585 4 20.009892 11.503120 20.887403 # 4
586 4 13.327538 8.000823 16.412987 # 4
587 4 15.314159 11.230374 14.489474 # 4
588 4 18.061888 7.983311 22.800707 # 4
589 4 19.879444 10.850583 15.958835 # 4
590 4 13.509440 8.211752 21.199949 # 4
591 4 15.824160 11.126300 22.488670 # 4
592 4 17.589052 8.122503 14.773830 # 4
593 4 19.437916 10.262365 23.369419 # 4
594 4 14.106360 8.856743 13.790388 # 4
595 4 14.755656 10.164572 16.923651 # 4
596 4 18.731657 9.070704 20.222118 # 4
597 4 19.013067 10.006495 13.532566 # 4
598 4 14.345111 9.184342 23.532967 # 4
599 4 14.959591 10.312663 20.236153 # 4
600 4 18.451128 8.945609 17.059004 # 4
601 1 17.758427 12.047877 25.223019 # 1
602 1 17.138659 7.405380 37.590752 # 1
603 1 13.779195 12.216807 31.741247 # 1
604 1 20.891277 7.475745 31.473858 # 1
605 2 20.837574 11.778481 35.577301 # 2
606 2 13.736517 7.968031 27.526691 # 2
607 2 16.250708 11.622396 29.107037 # 2
608 2 18.445578 8.105166 34.007290 # 2
609 3 20.531487 11.540281 27.338528 # 3
610 3 14.143590 8.221533 35.815853 # 3
611 3 16.545383 11.642486 33.886219 # 3
612 3 18.120317 8.101397 29.355932 # 3
613 3 15.238754 10.996718 36.489429 # 3
614 3 19.407442 8.759261 26.690212 # 3
615 3 19.279425 10.859682 29.987276 # 3
616 3 15.390409 8.873681 33.167107 # 3
617 3 14.769204 10.775075 26.590199 # 3
618 3 19.868906 9.075042 36.598248 # 3
619 3 19.428778 10.888988 32.986080 # 3
620 3 15.146253 8.852521 30.135641 # 3
621 4 23.473995 6.808347 36.098045 # 4
622 4 11.209064 12.880299 26.919588 # 4
623 4 18.787024 6.691140 29.698711 # 4
624 4 15.922197 13.018068 33.437168 # 4
625 4 15.694674 11.618550 37.955093 # 4
626 4 18.857170 8.306486 25.202101 # 4
627 4 19.940590 11.207993 31.463144 # 4
628 4 14.792464 8.360526 31.724792 # 4
629 4 13.883372 11.694494 36.015636 # 4
630 4 20.646784 7.965585 27.227283 # 4
631 4 17.864271 11.549629 29.716063 # 4
632 4 16.791397 8.206497 33.605312 # 4
633 4 13.431093 11.613902 27.000212 # 4
634 4 21.306852 8.357988 36.212475 # 4
635 4 18.057343 11.644649 33.390484 # 4
636 4 16.598711 8.057710 29.824493 # 4
637 4 20.514204 11.542722 33.911739 # 4
638 4 13.959743 8.349741 29.163298 # 4
639 4 16.015303 11.342768 27.442114 # 4
640 4 18.723478 8.471781 35.731407 # 4
641 4 20.414846 11.186349 28.887873 # 4
642 4 14.174129 8.571308 34.248268 # 4
643 4 16.467976 11.260668 35.468613 # 4
644 4 18.108648 8.496693 27.728252 # 4
645 4 19.907822 10.642659 36.523617 # 4
646 4 14.419664 9.254433 26.670563 # 4
647 4 15.431695 10.457549 30.100687 # 4
648 4 19.368164 9.306198 33.138531 # 4
649 4 19.795849 10.354931 26.566088 # 4
650 4 15.018348 9.355508 36.617256 # 4
651 4 15.596176 10.477482 33.044258 # 4
652 4 19.053902 9.231551 30.103880 # 4
653 4 26.210457 4.453353 12.085405 # 4
654 4 31.175055 2.232546 38.194027 # 4
655 1 28.859615 5.502046 12.512002 # 1
656 1 28.040031 0.952615 25.027073 # 1
657 1 24.993614 5.490221 18.764116 # 1
658 1 32.090477 0.862202 18.564211 # 1
659 2 32.112156 5.092302 22.670841 # 2
660 2 24.995298 1.202534 14.698819 # 2
661 2 27.483601 4.936014 16.194967 # 2
662 2 29.584208 1.393373 21.095980 # 2
663 3 31.691675 4.701858 14.342003 # 3
664 3 25.404100 1.545074 22.848164 # 3
665 3 27.752033 4.949644 20.951696 # 3
666 3 29.387939 1.412936 16.430590 # 3
667 3 26.504660 4.279252 23.527861 # 3
668 3 30.579153 1.963068 13.719076 # 3
669 3 30.480434 4.141734 17.079670 # 3
670 3 26.639664 2.141616 20.214596 # 3
671 3 25.993452 3.964556 13.620717 # 3
672 3 31.073881 2.275496 23.671377 # 3
673 3 30.623428 4.178101 20.067759 # 3
674 3 26.403946 2.159966 17.207752 # 3
675 4 34.707680 0.149606 23.236874 # 4
676 4 22.463192 6.217575 13.913364 # 4
677 4 -1.724240 64.493271 16.759212 # 4
678 4 27.007639 6.277118 20.470501 # 4
679 4 27.078159 4.673382 25.005257 # 4
680 4 30.017580 1.264449 12.388383 # 4
681 4 31.037050 4.603869 18.528238 # 4
682 4 25.990717 1.817986 18.798431 # 4
683 4 25.100029 4.892116 23.085188 # 4
684 4 32.007706 1.400916 14.030859 # 4
685 4 29.153252 4.876087 16.631767 # 4
686 4 27.915068 1.326254 20.688646 # 4
687 4 24.627771 4.793396 14.108167 # 4
688 4 32.414963 1.363437 23.211229 # 4
689 4 29.218033 4.973036 20.349564 # 4
690 4 27.828129 1.361462 16.928629 # 4
691 4 31.831882 4.740949 20.919807 # 4
692 4 25.209047 1.404380 16.446918 # 4
693 4 27.196465 4.655421 14.410890 # 4
694 4 29.850208 1.846250 22.747002 # 4
695 4 31.664675 4.256173 15.971081 # 4
696 4 25.363844 1.937115 21.252382 # 4
697 4 27.781460 4.796223 22.603354 # 4
698 4 29.468172 1.744423 14.867593 # 4
699 4 31.397917 3.860372 23.589478 # 4
700 4 25.968384 2.330738 13.821640 # 4
701 4 26.484518 3.721155 17.014608 # 4
702 4 30.358868 2.593354 20.136648 # 4
703 4 30.807192 3.559129 13.549914 # 4
704 4 26.324358 2.689755 23.521355 # 4
705 4 26.963760 3.768164 20.157061 # 4
706 4 30.176266 2.528405 17.263245 # 4
707 1 29.531790 5.725593 25.216516 # 1
708 1 28.898462 0.947291 37.637188 # 1
709 1 25.571972 5.762139 31.736403 # 1
710 1 32.685246 1.035180 31.487637 # 1
711 2 32.713009 5.332450 35.611237 # 2
712 2 25.605110 1.539764 27.545321 # 2
713 2 28.022972 5.266603 29.126684 # 2
714 2 30.295605 1.685990 34.040455 # 2
715 3 32.298737 5.063750 27.429743 # 3
716 3 25.995256 1.760995 35.817001 # 3
717 3 28.342846 5.200380 33.858032 # 3
718 3 29.999676 1.641717 29.317913 # 3
719 3 27.057562 4.506491 36.454475 # 3
720 3 31.277212 2.283664 26.706285 # 3
721 3 31.088001 4.420541 29.982174 # 3
722 3 27.243916 2.446521 33.222984 # 3
723 3 26.653662 4.325938 26.561495 # 3
724 3 31.673458 2.600410 36.617256 # 3
725 3 31.323011 4.438585 33.047443 # 3
726 3 27.044619 2.449055 30.143938 # 3
727 4 35.261116 0.360967 36.180706 # 4
728 4 23.079697 6.520936 26.885263 # 4
729 4 30.687784 0.271258 29.770149 # 4
730 4 27.711926 6.656602 33.449928 # 4
731 4 27.576635 5.063863 37.901001 # 4
732 4 30.635460 1.954652 25.206944 # 4
733 4 31.683018 4.853192 31.455746 # 4
734 4 26.619402 2.177094 31.688818 # 4
735 4 25.786303 5.246105 35.995220 # 4
736 4 32.625824 1.507172 26.860901 # 4
737 4 29.822199 5.205785 29.557745 # 4
738 4 28.603611 1.684567 33.557091 # 4
739 4 25.186007 5.033352 26.802855 # 4
740 4 33.060406 1.915102 36.197041 # 4
741 4 29.869480 5.137892 33.359352 # 4
742 4 28.453945 1.693557 29.874763 # 4
743 4 32.412289 5.138592 33.928833 # 4
744 4 25.868647 1.810832 29.245197 # 4
745 4 27.719398 4.975550 27.509218 # 4
746 4 30.512125 1.945577 35.676674 # 4
747 4 32.303986 4.796179 28.998606 # 4
748 4 26.035233 1.968237 34.232960 # 4
749 4 28.287563 4.990574 35.466187 # 4
750 4 29.975180 1.844335 27.618416 # 4
751 4 31.708960 4.212982 36.514050 # 4
752 4 26.632854 2.669673 26.743408 # 4
753 4 27.312281 3.993709 30.003099 # 4
754 4 31.257441 2.842366 33.132660 # 4
755 4 31.301107 3.884203 26.711138 # 4
756 4 26.874468 2.895911 36.556274 # 4
757 4 27.383888 4.059517 33.305397 # 4
758 4 30.845552 2.809633 30.011768 # 4
759 4 23.195375 10.802304 12.002736 # 4
760 4 28.012058 8.612145 38.188416 # 4
761 1 25.669008 11.980719 12.538151 # 1
762 1 24.958313 7.416441 25.011637 # 1
763 1 21.861210 11.887576 18.781593 # 1
764 1 28.940250 7.276498 18.508465 # 1
765 2 28.917477 11.493951 22.613049 # 2