LAMMPS data file. CGCMM style. atom_style atomic generated by VMD/TopoTools v1.8 on Wed Aug 27 18:14:06 CEST 2025
 20604 atoms
 5 atom types
 -40.651607 16.868397  xlo xhi
 -58.566837 1.555196  ylo yhi
 -25.274220 101.072826  zlo zhi
 15.168565 -72.281566 -74.931493 xy xz yz

 Masses

1 39.0983
2 26.981538
3 28.0855
4 15.9994
5 2

 Atoms # atomic

1 1 -1.450304 -7.712139 13.964881 # 1
2 2 -3.381151 -2.929949 10.402399 # 2
3 2 -1.130977 -3.442160 14.469132 # 2
4 3 -3.167454 -6.775942 16.940607 # 3
5 3 -5.136337 -3.408517 14.648417 # 3
6 3 -5.195660 -6.351995 14.619359 # 3
7 3 -3.162509 -3.773225 16.941238 # 3
8 3 -1.438210 -4.943110 11.817359 # 3
9 3 -3.180324 -1.479929 13.074262 # 3
10 4 2.100420 -3.325189 10.207952 # 4
11 4 -6.640891 -2.912946 14.934721 # 4
12 4 -5.287110 -7.432538 13.355762 # 4
13 4 -6.449819 -6.495442 15.584651 # 4
14 4 -1.790009 -3.743747 16.046572 # 4
15 4 -0.220295 -4.130788 11.062691 # 4
16 4 -4.446323 -2.298339 13.677695 # 4
17 4 -3.184330 -1.542937 11.447793 # 4
18 4 -1.290997 -4.786316 13.432076 # 4
19 4 -3.255932 -5.233001 17.526606 # 4
20 4 -5.078286 -4.854806 13.853819 # 4
21 4 -2.775579 -4.334863 11.195731 # 4
22 4 -1.788285 -1.958019 13.763611 # 4
23 4 -3.785797 -6.638224 15.433792 # 4
24 4 -4.537940 -3.528962 16.126301 # 4
25 1 -1.239803 8.879373 11.013540 # 1
26 1 4.200647 3.629006 7.228310 # 1
27 1 -3.145250 1.384687 10.923708 # 1
28 2 0.757372 4.105335 14.476713 # 2
29 2 -1.478988 4.537438 10.433735 # 2
30 3 0.474616 7.915802 8.052850 # 3
31 3 2.523726 4.525411 10.225009 # 3
32 3 2.512181 7.432530 10.323177 # 3
33 3 0.492554 4.991260 7.980199 # 3
34 3 -1.239374 5.994877 13.115700 # 3
35 3 0.475957 2.621708 11.866886 # 3
36 4 -4.771221 4.618299 14.881907 # 4
37 4 4.035933 4.146023 10.153368 # 4
38 4 2.548548 8.455691 11.597261 # 4
39 4 0.689896 0.964333 11.598527 # 4
40 4 0.289872 3.905547 6.758677 # 4
41 4 3.741793 7.430722 9.298885 # 4
42 4 -0.841654 4.916139 8.872970 # 4
43 4 -2.492006 5.172562 13.737580 # 4
44 4 1.714041 3.437666 11.152018 # 4
45 4 0.488004 2.702277 13.459492 # 4
46 4 -1.193051 5.904682 11.536996 # 4
47 4 0.480737 6.464949 7.192049 # 4
48 4 2.357641 5.943366 10.982837 # 4
49 4 0.150650 5.615769 13.773085 # 4
50 4 -0.857458 3.084941 11.148351 # 4
51 4 1.078801 7.593100 9.496996 # 4
52 4 1.830630 4.546024 8.784779 # 4
53 1 2.340731 -3.869443 7.320921 # 1
54 2 2.666576 0.427081 7.891629 # 2
55 3 0.599477 -2.990643 10.282116 # 3
56 3 -1.413547 0.422754 7.979315 # 3
57 3 -1.366865 -2.544003 7.959098 # 3
58 3 0.658684 -0.023133 10.321032 # 3
59 3 2.979041 -0.914885 5.317562 # 3
60 3 0.554196 2.315748 6.463151 # 3
61 4 -2.918324 0.819547 8.231253 # 4
62 4 -1.427945 -3.546968 6.630182 # 4
63 4 -2.646803 -2.787822 8.787683 # 4
64 4 1.957334 -0.030825 9.437235 # 4
65 4 4.198932 0.143677 5.012434 # 4
66 4 -0.771562 1.620983 7.067846 # 4
67 4 0.594068 2.110470 4.885580 # 4
68 4 2.478152 -0.980237 6.865567 # 4
69 4 0.363695 -1.525039 10.819597 # 4
70 4 -1.289111 -1.064383 7.257244 # 4
71 4 1.731488 -0.346129 4.348102 # 4
72 4 1.880828 1.803721 7.229195 # 4
73 4 -0.047878 -2.965557 8.797540 # 4
74 4 -0.651708 0.379464 9.413483 # 4
75 2 4.517617 7.886333 7.875456 # 2
76 3 2.491177 9.771075 6.498403 # 3
77 3 4.866766 6.625722 5.255651 # 3
78 4 -1.050544 8.435897 8.220258 # 4
79 4 7.670246 12.833790 4.740283 # 4
80 4 5.437957 5.204901 4.763403 # 4
81 4 -8.599823 -9.292103 26.567244 # 4
82 4 1.328144 9.061304 7.366027 # 4
83 4 5.854206 7.893595 4.793854 # 4
84 4 4.550313 6.522996 6.797337 # 4
85 4 2.326223 9.505269 4.879642 # 4
86 4 3.913177 9.289735 7.019584 # 4
87 4 3.451069 6.941538 4.454991 # 4
88 2 -10.947295 -10.570929 23.867456 # 2
89 3 -8.852786 -12.536055 25.144444 # 3
90 3 -10.203062 -9.026026 26.478168 # 3
91 4 -5.311165 -10.982106 23.473005 # 4
92 4 -13.153398 -15.410919 26.738186 # 4
93 4 -7.556452 -11.835420 24.372717 # 4
94 4 -10.460400 -7.430108 26.722017 # 4
95 4 -10.683951 -9.282249 24.958212 # 4
96 4 -8.505584 -12.322402 26.703943 # 4
97 4 -10.238029 -11.956019 24.693766 # 4
98 4 -11.040452 -9.903413 27.611496 # 4
99 1 -8.788797 1.186028 24.418581 # 1
100 1 -3.269217 -3.995695 20.701200 # 1
101 1 -10.716146 -6.222172 24.347956 # 1
102 2 -8.982513 -3.027187 23.843952 # 2
103 3 -6.986775 0.290600 21.361740 # 3
104 3 -4.966726 -3.047213 23.663912 # 3
105 3 -4.991855 -0.100307 23.701181 # 3
106 3 -6.951404 -2.645267 21.357063 # 3
107 3 -8.294363 -1.645733 26.484230 # 3
108 3 -7.031041 -5.022378 25.144068 # 3
109 4 -3.415159 -3.461936 23.575212 # 4
110 4 -4.631179 1.000524 24.842983 # 4
111 4 -6.782456 -6.599581 24.906784 # 4
112 4 -7.068878 -3.640326 20.056068 # 4
113 4 -3.806260 -0.297411 22.614470 # 4
114 4 -8.250591 -2.799319 22.293806 # 4
115 4 -9.442302 -2.381210 27.478329 # 4
116 4 -5.719348 -4.207729 24.522943 # 4
117 4 -6.820346 -4.919076 26.820694 # 4
118 4 -8.756888 -1.737709 24.978176 # 4
119 4 -6.713653 -1.192277 20.650532 # 4
120 4 -5.253701 -1.580508 24.357685 # 4
121 4 -6.825647 -2.224437 26.800474 # 4
122 4 -8.359459 -4.558358 24.431593 # 4
123 4 -6.297060 0.466162 22.834824 # 4
124 4 -5.567449 -3.110305 22.127403 # 4
125 1 -5.183642 -11.548903 20.656218 # 1
126 2 -7.170052 -6.751669 17.179779 # 2
127 2 -4.894726 -7.251325 21.183590 # 2
128 3 -6.859264 -10.584012 23.658474 # 3
129 3 -8.883488 -7.218667 21.406593 # 3
130 3 -8.919445 -10.155588 21.395983 # 3
131 3 -6.912867 -7.644089 23.667067 # 3
132 3 -5.165151 -8.744837 18.511351 # 3
133 3 -6.914579 -5.267026 19.753725 # 3
134 4 -1.618186 -7.200425 16.870991 # 4
135 4 -10.414342 -6.774459 21.593081 # 4
136 4 -8.928163 -11.137354 20.148306 # 4
137 4 -10.159634 -10.322937 22.325645 # 4
138 4 -5.724474 -7.461456 22.671585 # 4
139 4 -3.940845 -7.886915 17.744678 # 4
140 4 -8.182403 -6.028296 20.573965 # 4
141 4 -7.065715 -5.366877 18.179441 # 4
142 4 -5.071414 -8.655223 20.127836 # 4
143 4 -7.110819 -9.120951 24.462297 # 4
144 4 -8.693173 -8.672567 20.720531 # 4
145 4 -6.558887 -8.277634 17.889217 # 4
146 4 -5.572144 -5.785860 20.468088 # 4
147 4 -7.607862 -10.392453 22.229364 # 4
148 4 -8.290301 -7.217068 22.921495 # 4
149 1 -4.973654 5.031920 17.638041 # 1
150 1 0.497422 -0.262349 13.995076 # 1
151 1 -6.889517 -2.503197 17.613655 # 1
152 2 -2.989213 0.191654 21.248785 # 2
153 2 -5.250962 0.764250 17.146931 # 2
154 3 -3.303942 4.100636 14.649682 # 3
155 3 -1.244580 0.747693 16.944523 # 3
156 3 -1.270387 3.702881 16.962341 # 3
157 3 -3.278701 1.087200 14.660925 # 3
158 3 -5.052949 2.217863 19.861500 # 3
159 3 -3.235299 -1.134767 18.496447 # 3
160 4 -8.520800 0.659038 21.625811 # 4
161 4 0.264459 0.360835 16.763721 # 4
162 4 -1.218772 4.650723 18.304018 # 4
163 4 -3.044428 -2.787993 18.218859 # 4
164 4 -3.379841 0.072331 13.417673 # 4
165 4 0.031408 3.742056 16.050615 # 4
166 4 -4.589677 0.838601 15.532341 # 4
167 4 -6.379995 1.465661 20.419695 # 4
168 4 -1.978835 -0.456472 17.722439 # 4
169 4 -3.034990 -1.095240 20.066301 # 4
170 4 -4.911877 2.162278 18.245014 # 4
171 4 -3.265848 2.570219 14.051682 # 4
172 4 -1.419049 2.203138 17.630209 # 4
173 4 -3.720593 1.610380 20.561209 # 4
174 4 -4.622078 -0.733670 17.874058 # 4
175 4 -2.590039 4.115417 16.106464 # 4
176 4 -1.837057 0.863119 15.410417 # 4
177 1 5.772060 -7.741579 13.974987 # 1
178 2 3.769140 -2.963853 10.459257 # 2
179 2 6.053583 -3.364610 14.471279 # 2
180 3 4.043711 -6.806735 16.961708 # 3
181 3 2.025791 -3.411959 14.684425 # 3
182 3 2.037933 -6.373305 14.646271 # 3
183 3 4.058618 -3.825104 16.995062 # 3
184 3 5.797990 -4.870593 11.840354 # 3
185 3 3.977458 -1.491169 13.076283 # 3
186 4 9.297869 -3.483719 10.033970 # 4
187 4 0.522956 -3.003806 14.837938 # 4
188 4 1.939061 -7.338750 13.337315 # 4
189 4 0.778016 -6.384530 15.578080 # 4
190 4 5.280818 -3.682644 15.988960 # 4
191 4 7.023464 -4.222559 11.029585 # 4
192 4 2.637159 -2.236892 13.720779 # 4
193 4 3.895565 -1.564901 11.455124 # 4
194 4 6.088008 -4.780702 13.418554 # 4
195 4 3.950470 -5.315506 17.686306 # 4
196 4 2.184488 -4.922437 13.951739 # 4
197 4 4.420401 -4.330186 11.224540 # 4
198 4 5.417166 -1.995097 13.642947 # 4
199 4 3.429836 -6.690164 15.436318 # 4
200 4 2.654530 -3.504773 16.203115 # 4
201 1 6.010793 8.872291 11.014425 # 1
202 1 11.449696 3.622942 7.221611 # 1
203 1 4.075764 1.352458 11.022761 # 1
204 2 7.981035 4.081292 14.539253 # 2
205 2 5.707182 4.559778 10.434491 # 2
206 3 7.686256 7.941946 7.953920 # 3
207 3 9.712914 4.552339 10.249142 # 3
208 3 9.739224 7.493880 10.314208 # 3
209 3 7.657472 4.916791 7.963646 # 3
210 3 5.977863 5.984367 13.115071 # 3
211 3 7.707041 2.565547 11.818748 # 3
212 4 2.389348 4.507434 14.958345 # 4
213 4 11.229714 4.163941 10.043067 # 4
214 4 9.850430 8.486243 11.637695 # 4
215 4 7.885580 0.966214 11.545080 # 4
216 4 7.618540 3.912149 6.691585 # 4
217 4 11.107473 7.486446 9.456438 # 4
218 4 6.431244 4.839393 8.898868 # 4
219 4 4.563149 5.224139 13.636629 # 4
220 4 9.081754 3.339240 11.094655 # 4
221 4 7.753785 2.786005 13.437129 # 4
222 4 5.930720 5.878917 11.510084 # 4
223 4 7.652127 6.419032 7.330398 # 4
224 4 9.445951 6.009755 10.933434 # 4
225 4 7.255077 5.589725 13.888062 # 4
226 4 6.342691 3.051999 11.160606 # 4
227 4 8.489333 8.096174 9.422323 # 4
228 4 9.061926 4.622700 8.754328 # 4
229 1 9.540089 -3.884257 7.246757 # 1
230 2 9.837260 0.361423 7.881394 # 2
231 3 7.799067 -2.999316 10.290456 # 3
232 3 5.799315 0.411803 7.981969 # 3
233 3 5.775817 -2.548920 7.967691 # 3
234 3 7.806249 -0.068816 10.343014 # 3
235 3 10.213037 -0.898377 5.267527 # 3
236 3 7.798930 2.300205 6.392651 # 3
237 4 4.303715 0.974964 8.231757 # 4
238 4 5.634676 -3.563165 6.687292 # 4
239 4 4.427603 -2.458107 8.859956 # 4
240 4 9.144935 0.014131 9.412722 # 4
241 4 11.102261 0.463175 5.215474 # 4
242 4 6.563571 1.511518 7.112323 # 4
243 4 7.815050 2.170299 4.756204 # 4
244 4 9.711473 -1.050977 6.775102 # 4
245 4 7.672674 -1.577188 11.014677 # 4
246 4 5.985069 -1.048641 7.257872 # 4
247 4 8.921200 -0.564758 4.325231 # 4
248 4 9.171649 1.811551 7.126473 # 4
249 4 7.081422 -2.910362 8.807266 # 4
250 4 6.394976 0.293680 9.512917 # 4
251 2 11.738190 7.887535 7.875965 # 2
252 3 9.719177 9.800486 6.564482 # 3
253 3 12.096428 6.621645 5.149394 # 3
254 4 6.121752 8.360089 8.235549 # 4
255 4 15.253235 15.153183 5.010032 # 4
256 4 12.520631 5.098633 4.821651 # 4
257 4 -2.869589 -7.422256 26.932001 # 4
258 4 8.355802 8.973128 6.929876 # 4
259 4 13.386560 7.651698 4.984890 # 4
260 4 11.356581 6.786229 6.567894 # 4
261 4 9.804328 9.631363 4.907186 # 4
262 4 11.005397 9.383363 7.348213 # 4
263 4 11.109935 7.262634 4.005827 # 4
264 2 -3.695113 -10.538924 23.907257 # 2
265 3 -1.645706 -12.538005 25.206732 # 3
266 3 -3.060061 -9.003159 26.512403 # 3
267 4 1.830629 -10.967160 23.457838 # 4
268 4 -5.859303 -15.268858 26.760298 # 4
269 4 -0.368822 -11.702214 24.522696 # 4
270 4 -3.900468 -9.878459 27.553501 # 4
271 4 -3.566692 -9.198690 25.036797 # 4
272 4 -1.501551 -12.410767 26.834589 # 4
273 4 -2.951937 -11.895055 24.658890 # 4
274 4 -1.495526 -9.671088 26.795805 # 4
275 1 -1.538401 1.281728 24.369938 # 1
276 1 3.886452 -4.025800 20.664682 # 1
277 1 -3.412507 -6.253714 24.367289 # 1
278 2 -1.766982 -3.036802 23.926460 # 2
279 3 0.201865 0.329369 21.471035 # 3
280 3 2.231103 -3.092434 23.641930 # 3
281 3 2.212752 -0.143631 23.741488 # 3
282 3 0.220074 -2.659300 21.389536 # 3
283 3 -1.138044 -1.456172 26.568380 # 3
284 3 0.205510 -5.013856 25.205217 # 3
285 4 3.767563 -3.515907 23.491447 # 4
286 4 2.399962 0.885951 24.974133 # 4
287 4 0.486487 -6.633929 24.906912 # 4
288 4 0.188532 -3.675219 20.106991 # 4
289 4 3.474328 -0.190875 22.761164 # 4
290 4 -0.945087 -2.716006 22.454514 # 4
291 4 -2.341250 -1.940494 27.558178 # 4
292 4 1.484371 -4.278744 24.589659 # 4
293 4 0.253468 -4.859987 26.794155 # 4
294 4 -1.525869 -1.720945 25.014181 # 4
295 4 0.454549 -1.168194 20.814404 # 4
296 4 1.847375 -1.629009 24.367792 # 4
297 4 0.279484 -2.110636 27.043186 # 4
298 4 -1.221567 -4.504797 24.572218 # 4
299 4 0.899413 0.395812 22.926172 # 4
300 4 1.587728 -3.124827 22.201567 # 4
301 1 2.093059 -11.541786 20.695009 # 1
302 2 0.019429 -6.716327 17.134172 # 2
303 2 2.254820 -7.290540 21.228827 # 2
304 3 0.337398 -10.594183 23.645212 # 3
305 3 -1.740540 -7.183085 21.332806 # 3
306 3 -1.698967 -10.169778 21.308292 # 3
307 3 0.195867 -7.645601 23.678944 # 3
308 3 2.055985 -8.707683 18.519062 # 3
309 3 0.242957 -5.290729 19.828266 # 3
310 4 5.501265 -7.290423 16.838142 # 4
311 4 -3.255492 -6.918379 21.541660 # 4
312 4 -1.937576 -11.165347 20.042934 # 4
313 4 -2.950541 -10.214257 22.362789 # 4
314 4 1.495004 -7.633429 22.767731 # 4
315 4 3.333339 -7.919510 17.989416 # 4
316 4 -1.087662 -5.942441 20.532402 # 4
317 4 0.125972 -5.335242 18.234779 # 4
318 4 2.090284 -8.604053 20.146280 # 4
319 4 -0.056734 -9.161790 24.204929 # 4
320 4 -1.533777 -8.672874 20.605173 # 4
321 4 0.773187 -8.164337 17.757690 # 4
322 4 1.524704 -5.936437 20.415531 # 4
323 4 -0.326122 -10.559631 22.070169 # 4
324 4 -1.096506 -7.146592 22.854660 # 4
325 1 2.236170 5.041764 17.749483 # 1
326 1 7.721461 -0.190232 14.037908 # 1
327 1 0.218211 -2.473227 17.638546 # 1
328 2 4.183356 0.248251 21.246510 # 2
329 2 1.906601 0.801371 17.163107 # 2
330 3 3.947501 4.059685 14.689734 # 3
331 3 5.946417 0.733796 16.966129 # 3
332 3 5.917639 3.706707 17.014898 # 3
333 3 3.988743 1.130615 14.706536 # 3
334 3 2.132268 2.221222 19.882593 # 3
335 3 3.955098 -1.176852 18.537504 # 3
336 4 -1.363488 0.667875 21.564276 # 4
337 4 7.464566 0.367099 16.899036 # 4
338 4 6.073190 4.682602 18.310585 # 4
339 4 4.169936 -2.860044 18.297068 # 4
340 4 3.897001 0.127905 13.445722 # 4
341 4 7.212032 3.698539 16.067928 # 4
342 4 2.673165 1.015075 15.573279 # 4
343 4 0.820654 1.501407 20.576368 # 4
344 4 5.178795 -0.343445 17.858395 # 4
345 4 3.979937 -1.085878 20.143885 # 4
346 4 2.231469 2.032841 18.300350 # 4
347 4 4.177583 2.623206 14.043846 # 4
348 4 5.680120 2.210625 17.623257 # 4
349 4 3.451716 1.749071 20.666452 # 4
350 4 2.551232 -0.649604 17.909309 # 4
351 4 4.672899 4.173882 16.130344 # 4
352 4 5.386817 0.767728 15.442510 # 4
353 5 5.085350 -0.207567 5.023301 # 5
354 5 1.149436 1.370084 4.578177 # 5
355 5 1.742932 -0.640397 3.417934 # 5
356 5 8.477866 12.479723 5.053748 # 5
357 5 6.205713 4.765322 5.161146 # 5
358 5 -8.132556 -9.281610 25.622669 # 5
359 5 6.807959 7.691521 4.945722 # 5
360 5 2.845765 8.679563 4.693912 # 5
361 5 3.079942 6.252600 3.894894 # 5
362 5 -14.030661 -15.543585 27.128345 # 5
363 5 -9.678826 -6.938513 27.172062 # 5
364 5 -9.279081 -12.587573 27.245346 # 5
365 5 -10.642143 -9.834273 28.541920 # 5
366 5 -9.130649 -2.691280 28.359222 # 5
367 5 -6.864681 -3.910587 27.016655 # 5
368 5 -6.205184 -1.583111 27.130243 # 5
369 5 11.834455 0.619182 4.650828 # 5
370 5 7.999317 1.309483 4.460173 # 5
371 5 8.962295 -1.069845 3.525076 # 5
372 5 16.095434 14.916415 5.401961 # 5
373 5 13.338470 4.939091 5.290270 # 5
374 5 -3.683902 -7.082010 27.345287 # 5
375 5 14.303623 7.287205 4.888740 # 5
376 5 10.502576 9.257300 4.409000 # 5
377 5 10.255015 7.309762 4.353660 # 5
378 5 -5.883758 -14.766429 27.612890 # 5
379 5 -3.893301 -9.699457 28.578686 # 5
380 5 -1.537349 -11.465369 27.071239 # 5
381 5 -0.996210 -9.573542 26.009792 # 5
382 5 -2.081607 -2.684254 28.181320 # 5
383 5 -0.233750 -5.432898 27.419453 # 5
384 5 0.319037 -3.088035 27.065681 # 5
385 1 12.967851 -7.699059 13.992802 # 1
386 2 10.992862 -2.916827 10.446872 # 2
387 2 13.229612 -3.452842 14.513606 # 2
388 3 11.244722 -6.762044 16.937956 # 3
389 3 9.263591 -3.407080 14.688974 # 3
390 3 9.216640 -6.393045 14.636164 # 3
391 3 11.253000 -3.806648 16.958673 # 3
392 3 13.010856 -4.886583 11.852106 # 3
393 3 11.149791 -1.472080 13.118607 # 3
394 4 16.509222 -3.395419 10.056713 # 4
395 4 7.749868 -2.944978 14.881275 # 4
396 4 9.220684 -7.359056 13.319753 # 4
397 4 7.961054 -6.530566 15.592987 # 4
398 4 12.623933 -3.690595 16.142975 # 4
399 4 14.377074 -4.212916 11.068373 # 4
400 4 9.908015 -2.272701 13.767779 # 4
401 4 11.039913 -1.550041 11.574522 # 4
402 4 13.012142 -4.773325 13.442310 # 4
403 4 11.037304 -5.283064 17.619846 # 4
404 4 9.326344 -4.864327 14.039678 # 4
405 4 11.644627 -4.447112 11.108553 # 4
406 4 12.539970 -2.072368 13.677439 # 4
407 4 10.633236 -6.691181 15.414208 # 4
408 4 9.977046 -3.389183 16.181767 # 4
409 1 13.109273 8.907556 11.016700 # 1
410 1 18.570383 3.656455 7.253200 # 1
411 1 11.232719 1.355050 10.986248 # 1
412 2 15.121001 4.090475 14.530155 # 2
413 2 12.889706 4.475448 10.362473 # 2
414 3 14.868188 7.942845 7.995487 # 3
415 3 16.877831 4.565475 10.289951 # 3
416 3 16.933474 7.479162 10.320274 # 3
417 3 14.889260 5.007828 7.981465 # 3
418 3 13.110720 6.005260 13.106098 # 3
419 3 14.856220 2.588549 11.831761 # 3
420 4 9.635788 4.523976 14.764908 # 4
421 4 18.394468 4.120242 10.195314 # 4
422 4 17.070704 8.502431 11.561129 # 4
423 4 15.051148 0.930855 11.645655 # 4
424 4 14.849124 4.041528 6.691585 # 4
425 4 18.251942 7.420403 9.416133 # 4
426 4 13.515180 4.960727 8.745987 # 4
427 4 11.858453 5.248624 13.844217 # 4
428 4 16.195776 3.347430 11.200155 # 4
429 4 14.834582 2.735546 13.419314 # 4
430 4 12.966125 5.801306 11.513116 # 4
431 4 14.922616 6.508607 7.259138 # 4
432 4 16.842543 5.991947 11.020740 # 4
433 4 14.461682 5.501123 13.820212 # 4
434 4 13.548934 3.018272 10.947208 # 4
435 4 15.541911 7.817804 9.471093 # 4
436 4 16.276003 4.754496 8.811186 # 4
437 1 16.668407 -3.875449 7.273160 # 1
438 2 17.028585 0.459111 7.920943 # 2
439 3 15.010946 -2.961712 10.273779 # 3
440 3 12.973826 0.406669 7.977040 # 3
441 3 13.010469 -2.561048 7.959858 # 3
442 3 14.963298 -0.041012 10.308398 # 3
443 3 17.408377 -0.909909 5.257673 # 3
444 3 14.968566 2.377083 6.460496 # 3
445 4 11.483307 0.725756 8.246160 # 4
446 4 12.882895 -3.544542 6.695124 # 4
447 4 11.722186 -2.768824 8.847699 # 4
448 4 16.221739 0.145492 9.417903 # 4
449 4 18.779312 -0.078660 5.027850 # 4
450 4 13.608727 1.674349 7.166018 # 4
451 4 14.952415 2.143145 4.859682 # 4
452 4 16.789562 -0.737862 6.766385 # 4
453 4 14.891496 -1.524921 10.982713 # 4
454 4 13.234640 -1.061682 7.262929 # 4
455 4 16.190233 -0.495366 4.236916 # 4
456 4 16.385260 1.902708 7.167916 # 4
457 4 14.399382 -2.911369 8.780987 # 4
458 4 13.573834 0.325094 9.538310 # 4
459 2 18.899904 7.937613 7.848797 # 2
460 3 16.825207 9.824183 6.440283 # 3
461 3 19.219362 6.587220 5.214336 # 3
462 4 13.387513 8.396683 8.178819 # 4
463 4 22.171627 15.229746 4.691261 # 4
464 4 20.476616 7.655477 4.849571 # 4
465 4 3.365585 -7.742508 27.059612 # 4
466 4 15.488463 9.173166 7.125713 # 4
467 4 18.058096 6.856184 4.111704 # 4
468 4 18.780094 6.588074 6.716602 # 4
469 4 16.914362 9.556353 4.875221 # 4
470 4 18.059143 9.302428 7.280111 # 4
471 4 19.586630 5.023962 4.833399 # 4
472 2 3.494728 -10.601038 23.911934 # 2
473 3 5.521277 -12.512395 25.207748 # 3
474 3 4.130373 -9.122064 26.505581 # 3
475 4 9.037653 -11.049472 23.463018 # 4
476 4 1.894284 -15.236379 27.119249 # 4
477 4 6.696901 -11.748866 24.438545 # 4
478 4 3.565759 -10.455678 27.380028 # 4
479 4 3.555383 -9.219037 24.979563 # 4
480 4 5.596889 -12.491433 26.808306 # 4
481 4 4.164916 -12.069071 24.623142 # 4
482 4 5.720560 -9.077904 26.556625 # 4
483 1 5.742443 1.188338 24.443470 # 1
484 1 11.158920 -3.960812 20.639544 # 1
485 1 3.858864 -6.293757 24.478090 # 1
486 2 5.368880 -3.039557 23.898159 # 2
487 3 7.316160 0.316742 21.373112 # 3
488 3 9.395251 -3.048971 23.697899 # 3
489 3 9.390370 -0.118195 23.641930 # 3
490 3 7.384031 -2.565763 21.415819 # 3
491 3 5.088302 -1.549534 26.528324 # 3
492 3 7.384501 -4.975982 25.211409 # 3
493 4 10.907086 -3.459952 23.551085 # 4
494 4 9.329066 0.861860 24.961624 # 4
495 4 7.541603 -6.580810 24.857893 # 4
496 4 7.157386 -3.669911 20.219187 # 4
497 4 10.659051 0.030216 22.765585 # 4
498 4 6.199580 -2.571149 22.485090 # 4
499 4 3.601883 -2.085085 26.863651 # 4
500 4 8.651248 -4.198205 24.608358 # 4
501 4 7.724688 -4.820601 26.831554 # 4
502 4 5.407736 -1.674185 24.972740 # 4
503 4 7.420183 -1.148866 20.583824 # 4
504 4 9.188326 -1.613520 24.414160 # 4
505 4 6.207002 -2.373819 27.414776 # 4
506 4 5.997026 -4.396890 24.771847 # 4
507 4 8.047532 0.285544 22.811319 # 4
508 4 8.843684 -2.915353 22.139912 # 4
509 1 9.301130 -11.477472 20.728491 # 1
510 2 7.204664 -6.794683 17.172323 # 2
511 2 9.531350 -7.212508 21.258642 # 2
512 3 7.504057 -10.601748 23.647736 # 3
513 3 5.411118 -7.217446 21.392570 # 3
514 3 5.528615 -10.150884 21.361996 # 3
515 3 7.479205 -7.669350 23.696384 # 3
516 3 9.256026 -8.707177 18.584505 # 3
517 3 7.413321 -5.295441 19.904327 # 3
518 4 12.763370 -7.208600 16.784822 # 4
519 4 3.840758 -6.857380 21.665482 # 4
520 4 5.377860 -11.199230 20.141731 # 4
521 4 4.353189 -10.346114 22.418253 # 4
522 4 8.743028 -7.638578 22.773672 # 4
523 4 10.538970 -7.858526 17.928257 # 4
524 4 6.073627 -5.986196 20.530249 # 4
525 4 7.341655 -5.427972 18.275461 # 4
526 4 9.334882 -8.577119 20.174459 # 4
527 4 7.209151 -9.121713 24.439049 # 4
528 4 5.643258 -8.639248 20.657860 # 4
529 4 7.909221 -8.102353 17.962877 # 4
530 4 8.835272 -5.788138 20.539347 # 4
531 4 6.873492 -10.430905 22.142946 # 4
532 4 6.089964 -7.225147 22.867296 # 4
533 1 9.420440 4.999062 17.705006 # 1
534 1 14.904745 -0.223891 13.992173 # 1
535 1 7.516824 -2.470650 17.629831 # 1
536 2 11.403470 0.212851 21.226931 # 2
537 2 9.137985 0.735504 17.169041 # 2
538 3 11.151621 4.097183 14.712474 # 3
539 3 13.161461 0.718716 16.954758 # 3
540 3 13.148067 3.683760 16.952610 # 3
541 3 11.146364 1.169826 14.662823 # 3
542 3 9.335371 2.221012 19.848991 # 3
543 3 11.143236 -1.162219 18.550646 # 3
544 4 5.795562 0.849993 21.629341 # 4
545 4 14.677028 0.312502 16.732386 # 4
546 4 13.238454 4.689178 18.210899 # 4
547 4 11.370140 -2.761961 18.251709 # 4
548 4 10.901128 0.114562 13.449257 # 4
549 4 14.373082 3.715765 15.984035 # 4
550 4 9.951938 1.173602 15.695961 # 4
551 4 8.038831 1.337236 20.399227 # 4
552 4 12.422719 -0.462316 17.756426 # 4
553 4 11.293019 -1.035697 20.078434 # 4
554 4 9.358607 2.136935 18.245262 # 4
555 4 11.279662 2.644260 13.958058 # 4
556 4 12.977493 2.231751 17.672283 # 4
557 4 10.693619 1.651036 20.500563 # 4
558 4 9.722550 -0.682494 17.932934 # 4
559 4 11.678543 4.017483 16.245951 # 4
560 4 12.550199 0.866195 15.427221 # 4
561 1 20.140581 -7.636801 14.018704 # 1
562 2 18.127983 -2.940259 10.386731 # 2
563 2 20.445351 -3.423313 14.467868 # 2
564 3 18.385757 -6.810071 16.936819 # 3
565 3 16.398146 -3.417452 14.654863 # 3
566 3 16.411388 -6.387711 14.643492 # 3
567 3 18.443129 -3.798971 16.982426 # 3
568 3 20.222054 -4.880238 11.800553 # 3
569 3 18.421200 -1.495752 13.074890 # 3
570 4 23.720375 -3.414777 10.040288 # 4
571 4 14.909600 -2.956039 14.760739 # 4
572 4 16.219536 -7.386068 13.397328 # 4
573 4 15.257054 -6.665392 15.688128 # 4
574 4 19.685877 -3.806922 15.988456 # 4
575 4 21.457203 -4.258244 10.976519 # 4
576 4 17.227816 -2.348970 13.826027 # 4
577 4 18.252911 -1.560204 11.461186 # 4
578 4 20.463202 -4.836122 13.340474 # 4
579 4 18.282526 -5.285262 17.663185 # 4
580 4 16.508413 -4.895045 14.007837 # 4
581 4 18.753860 -4.469675 11.141527 # 4
582 4 19.816465 -1.990558 13.633473 # 4
583 4 17.832926 -6.590893 15.390580 # 4
584 4 17.006634 -3.570942 16.177217 # 4
585 1 20.353178 8.878572 10.997747 # 1
586 1 25.747593 3.632300 7.304876 # 1
587 1 18.442022 1.285279 10.943417 # 1
588 2 22.335468 4.020821 14.512469 # 2
589 2 20.045740 4.631229 10.406567 # 2
590 3 22.039387 7.920101 8.026947 # 3
591 3 24.065279 4.521052 10.217049 # 3
592 3 24.080137 7.479412 10.343775 # 3
593 3 22.062962 5.019830 7.923722 # 3
594 3 20.297327 6.003428 13.132505 # 3
595 3 22.058582 2.603339 11.823045 # 3
596 4 16.756115 4.523900 14.912230 # 4
597 4 25.615793 4.152049 10.048120 # 4
598 4 24.088810 8.539651 11.556452 # 4
599 4 22.240021 0.992356 11.583615 # 4
600 4 21.996374 3.959761 6.655704 # 4
601 4 25.378880 7.618794 9.418788 # 4
602 4 20.789217 4.867286 8.870187 # 4
603 4 19.037661 5.272717 13.827921 # 4
604 4 23.389158 3.294136 10.985492 # 4
605 4 22.206011 2.678527 13.433846 # 4
606 4 20.336134 5.889705 11.568836 # 4
607 4 22.218241 6.468187 7.240819 # 4
608 4 23.970499 5.941583 10.970328 # 4
609 4 21.687115 5.460708 13.667965 # 4
610 4 20.716206 3.172084 11.077346 # 4
611 4 22.758163 7.749652 9.443677 # 4
612 4 23.457821 4.711485 8.719076 # 4
613 1 23.959698 -3.858340 7.197478 # 1
614 2 24.190763 0.431977 7.918036 # 2
615 3 22.184624 -3.061103 10.223111 # 3
616 3 20.170715 0.394603 8.050195 # 3
617 3 20.199041 -2.583823 7.958217 # 3
618 3 22.152212 -0.079810 10.356283 # 3
619 3 24.606745 -0.837671 5.258938 # 3
620 3 22.148195 2.308609 6.506107 # 3
621 4 18.654741 0.833583 8.220258 # 4
622 4 20.136143 -3.581657 6.692217 # 4
623 4 18.910599 -2.647027 8.849846 # 4
624 4 23.453524 0.097197 9.425231 # 4
625 4 23.358751 -0.435218 4.234642 # 4
626 4 20.836977 1.576499 7.232983 # 4
627 4 21.935995 2.054039 4.924876 # 4
628 4 24.143606 -0.857113 6.782049 # 4
629 4 21.972826 -1.600477 11.000526 # 4
630 4 20.372854 -1.084086 7.387381 # 4
631 4 24.977011 -2.370508 4.882677 # 4
632 4 23.496883 1.808909 7.120283 # 4
633 4 21.603924 -2.922394 8.733987 # 4
634 4 20.761129 0.232200 9.588093 # 4
635 2 26.101456 7.844019 7.884554 # 2
636 3 24.018869 9.786196 6.453044 # 3
637 3 26.462734 6.626575 5.200691 # 3
638 4 20.511784 8.306596 8.251341 # 4
639 4 28.662722 12.529145 4.831124 # 4
640 4 27.354656 5.384267 4.569841 # 4
641 4 10.634081 -7.769936 27.047359 # 4
642 4 22.704931 9.146826 7.191921 # 4
643 4 27.335241 8.043992 5.214209 # 4
644 4 26.072161 6.439934 6.751978 # 4
645 4 23.714920 9.423767 4.917421 # 4
646 4 25.372154 9.272059 7.165766 # 4
647 4 25.182915 6.712339 4.179682 # 4
648 2 10.713300 -10.547833 23.837130 # 2
649 3 12.703909 -12.496503 25.225559 # 3
650 3 11.372485 -9.137218 26.537926 # 3
651 4 16.245220 -11.038688 23.622847 # 4
652 4 8.934254 -15.100594 26.973827 # 4
653 4 13.846326 -11.689674 24.454208 # 4
654 4 11.045045 -10.436184 27.527098 # 4
655 4 10.910468 -9.304971 25.002306 # 4
656 4 12.849898 -12.335662 26.868328 # 4
657 4 11.304129 -12.018884 24.705387 # 4
658 4 13.019138 -8.900435 26.688536 # 4
659 1 12.836776 1.227267 24.377018 # 1
660 1 18.329853 -4.005878 20.627541 # 1
661 1 10.887990 -6.262784 24.468239 # 1
662 2 12.633340 -3.007185 23.844585 # 2
663 3 14.504949 0.343265 21.377661 # 3
664 3 16.555878 -3.045710 23.662903 # 3
665 3 16.492767 -0.135149 23.658354 # 3
666 3 14.597166 -2.667550 21.311705 # 3
667 3 13.130677 -1.490573 26.511019 # 3
668 3 14.657283 -5.013206 25.240213 # 3
669 4 18.091145 -3.380462 23.684381 # 4
670 4 16.764524 0.991588 24.837673 # 4
671 4 14.904040 -6.595103 24.934204 # 4
672 4 14.614394 -3.707795 20.109009 # 4
673 4 17.747663 -0.201787 22.665514 # 4
674 4 13.351699 -2.817741 22.272961 # 4
675 4 11.837154 -2.093618 27.287798 # 4
676 4 15.943498 -4.158167 24.629452 # 4
677 4 14.704091 -4.810526 26.855314 # 4
678 4 12.965565 -1.715472 24.905903 # 4
679 4 14.759574 -1.155265 20.715855 # 4
680 4 16.225492 -1.594007 24.349726 # 4
681 4 14.512611 -2.125868 27.222858 # 4
682 4 13.209295 -4.517086 24.500584 # 4
683 4 15.101127 0.346078 22.907850 # 4
684 4 15.974502 -3.022553 22.131704 # 4
685 1 16.374510 -11.507824 20.769934 # 1
686 2 14.398213 -6.795589 17.180540 # 2
687 2 16.677263 -7.224826 21.196482 # 2
688 3 14.699621 -10.588737 23.680336 # 3
689 3 12.629253 -7.151490 21.427439 # 3
690 3 12.649941 -10.138216 21.352394 # 3
691 3 14.660222 -7.623506 23.715084 # 3
692 3 16.398571 -8.730527 18.555450 # 3
693 3 14.655216 -5.306260 19.817656 # 3
694 4 19.923750 -7.255032 16.835234 # 4
695 4 11.108318 -6.725786 21.676350 # 4
696 4 12.432521 -11.240134 20.216280 # 4
697 4 11.363356 -10.189260 22.338276 # 4
698 4 15.809716 -7.504017 22.699757 # 4
699 4 17.641970 -7.889332 17.866354 # 4
700 4 13.362491 -5.978570 20.560575 # 4
701 4 14.564922 -5.411836 18.211658 # 4
702 4 16.673361 -8.581806 20.112926 # 4
703 4 14.494194 -9.112379 24.387123 # 4
704 4 12.788482 -8.648750 20.742514 # 4
705 4 14.914849 -8.304096 18.133955 # 4
706 4 16.106485 -5.818429 20.316093 # 4
707 4 14.050595 -10.510818 22.161015 # 4
708 4 13.262673 -7.304315 22.942093 # 4
709 1 16.556931 5.019475 17.654465 # 1
710 1 22.065256 -0.161830 14.044859 # 1
711 1 14.645450 -2.453249 17.641453 # 1
712 2 18.539249 0.266041 21.274307 # 2
713 2 16.280586 0.768893 17.131393 # 2
714 3 18.313477 4.081247 14.704770 # 3
715 3 20.343554 0.711417 16.974970 # 3
716 3 20.283279 3.679362 17.011736 # 3
717 3 18.359049 1.141587 14.687837 # 3
718 3 16.539984 2.255171 19.871983 # 3
719 3 18.347174 -1.160596 18.510597 # 3
720 4 13.027097 0.805220 21.433758 # 4
721 4 21.881262 0.338111 16.722151 # 4
722 4 20.501631 4.727383 18.252213 # 4
723 4 18.713173 -2.745823 18.172491 # 4
724 4 18.302204 0.168080 13.324553 # 4
725 4 21.526438 3.655258 16.002230 # 4
726 4 17.089550 0.944245 15.638474 # 4
727 4 15.148824 1.519997 20.464933 # 4
728 4 19.664114 -0.489199 17.872921 # 4
729 4 18.444323 -1.056956 20.128469 # 4
730 4 16.496208 2.113770 18.214687 # 4
731 4 18.421284 2.637396 14.021231 # 4
732 4 20.165960 2.143947 17.688957 # 4
733 4 17.880886 1.742961 20.576496 # 4
734 4 16.914845 -0.632747 17.990170 # 4
735 4 18.890718 3.956360 16.224216 # 4
736 4 19.744421 0.821128 15.457293 # 4
737 5 18.842083 0.354798 4.121182 # 5
738 5 15.650588 1.585473 4.536863 # 5
739 5 16.286936 -0.843240 3.363478 # 5
740 5 23.062056 15.202203 5.021151 # 5
741 5 21.252544 7.220111 4.520438 # 5
742 5 3.867515 -7.299357 27.769051 # 5
743 5 17.857412 6.160222 3.532531 # 5
744 5 17.566652 8.977460 4.533957 # 5
745 5 20.476423 4.757574 4.999545 # 5
746 5 1.042078 -14.917463 27.589890 # 5
747 5 3.708543 -10.178946 28.347473 # 5
748 5 4.862855 -11.908105 27.148687 # 5
749 5 6.320717 -8.928082 25.833412 # 5
750 5 2.841961 -1.641247 26.437231 # 5
751 5 7.047510 -4.441292 27.458364 # 5
752 5 6.972211 -1.738843 27.430952 # 5
753 5 23.000385 -1.199201 3.779792 # 5
754 5 22.343309 1.318571 4.432376 # 5
755 5 25.864590 -2.791841 5.013951 # 5
756 5 29.599627 12.378776 4.690629 # 5
757 5 27.995338 4.721690 4.948124 # 5
758 5 9.814079 -7.880880 27.550219 # 5
759 5 27.845469 8.424636 4.424668 # 5
760 5 24.386513 8.901067 4.481399 # 5
761 5 25.166130 6.259442 3.372323 # 5