LAMMPS data file. CGCMM style. atom_style atomic generated by VMD/TopoTools v1.8 on Tue Jul 15 11:51:19 CEST 2025
 20220 atoms
 5 atom types
 -41.379608 16.140396  xlo xhi
 -60.176407 -0.054374  ylo yhi
 -25.092618 101.254429  zlo zhi
 15.168565 -72.281566 -74.931493 xy xz yz

 Masses

1 39.0983
2 26.981538
3 28.0855
4 15.9994
5 2

 Atoms # atomic

1 1 -3.715568 -10.214921 17.835497 # 1
2 4 -7.716238 -9.986519 17.240023 # 4
3 1 -3.566742 6.271686 14.759452 # 1
4 1 1.974843 1.046647 11.146434 # 1
5 1 -5.442342 -1.199039 14.783204 # 1
6 2 -1.537683 1.509091 18.328129 # 2
7 2 -1.841517 -1.717633 7.525072 # 2
8 2 0.245466 -2.165566 11.609240 # 2
9 2 -3.787008 2.007784 14.243828 # 2
10 3 -1.657092 -5.567094 14.074399 # 3
11 3 -1.787327 5.349904 11.819230 # 3
12 3 0.245078 2.001127 14.082611 # 3
13 3 -3.719186 -2.188885 11.812280 # 3
14 3 0.203407 4.939653 14.109775 # 3
15 3 -3.673513 -5.084429 11.801036 # 3
16 3 -1.717104 -2.592659 14.085013 # 3
17 3 -1.791311 2.442282 11.777664 # 3
18 3 0.169415 -3.714660 8.926514 # 3
19 3 -3.565596 3.447508 16.949173 # 3
20 3 -1.749228 0.077708 15.640346 # 3
21 3 -1.749624 -0.252147 10.274766 # 3
22 4 -7.111089 1.986086 18.809885 # 4
23 4 3.742173 -2.315567 7.222598 # 4
24 4 -5.243719 -1.826226 11.959475 # 4
25 4 1.765473 1.590284 13.815133 # 4
26 4 0.413085 5.939530 15.357832 # 4
27 4 -1.524611 -1.536585 15.320434 # 4
28 4 -1.856572 1.417507 10.481974 # 4
29 4 1.427554 5.054628 13.132483 # 4
30 4 -5.048640 -5.120716 12.657416 # 4
31 4 -0.399144 -2.568371 13.200204 # 4
32 4 -3.125292 2.407569 12.657544 # 4
33 4 1.636120 -3.059896 8.388151 # 4
34 4 -4.955046 2.712078 17.462770 # 4
35 4 -0.515769 0.998021 15.000523 # 4
36 4 -2.947596 -1.004356 11.050536 # 4
37 4 -1.627458 0.227339 17.221828 # 4
38 4 -2.009908 -0.422157 8.725116 # 4
39 4 0.104038 -3.582898 10.553235 # 4
40 4 -3.530955 3.303889 15.356948 # 4
41 4 -1.915021 -4.093397 14.658248 # 4
42 4 -1.494519 3.882210 11.118005 # 4
43 4 0.085976 3.426501 14.761222 # 4
44 4 -3.253664 -3.617788 11.212006 # 4
45 4 -2.255563 2.958692 17.716223 # 4
46 4 -1.110522 -3.109976 8.183973 # 4
47 4 -0.325163 -0.687224 10.897275 # 4
48 4 -3.135602 0.604573 14.943160 # 4
49 4 -2.365192 -5.681068 12.613952 # 4
50 4 -1.116811 5.405294 13.350682 # 4
51 4 -0.509686 2.106788 12.636948 # 4
52 4 -3.018992 -2.079586 13.288519 # 4
53 1 -0.004277 -6.480130 11.149337 # 1
54 4 -3.775672 -6.068948 10.482478 # 4
55 1 0.234087 10.036280 7.911823 # 1
56 1 -1.666551 2.601843 7.901461 # 1
57 2 2.218237 5.344748 11.595469 # 2
58 2 -0.009757 5.834543 7.537328 # 2
59 3 2.199704 -1.874597 7.388492 # 3
60 3 4.077788 5.675352 7.286908 # 3
61 3 3.750053 8.565438 7.393421 # 3
62 3 1.913075 1.105471 7.422859 # 3
63 3 0.148392 7.293949 10.256319 # 3
64 3 2.092177 3.839587 8.894929 # 3
65 4 -3.318102 5.793632 12.041602 # 4
66 4 5.580531 5.397596 6.965735 # 4
67 4 4.149519 9.684820 8.554421 # 4
68 4 2.246473 2.221193 8.568952 # 4
69 4 4.878557 8.762228 6.241261 # 4
70 4 -1.137861 -1.082716 6.055784 # 4
71 4 2.914907 1.245638 6.155218 # 4
72 4 0.696173 6.477099 6.029505 # 4
73 4 -1.110769 6.473433 10.951098 # 4
74 4 3.505283 4.485319 8.263319 # 4
75 4 1.973211 4.009684 10.516718 # 4
76 4 0.008146 7.163901 8.690372 # 4
77 4 2.106588 -0.381495 8.137603 # 4
78 4 3.935674 7.119702 8.030841 # 4
79 4 1.574656 6.740095 10.688297 # 4
80 4 0.813577 4.427647 8.135204 # 4
81 4 1.355356 -1.938837 5.970500 # 4
82 4 2.239420 8.840755 6.657700 # 4
83 4 3.308584 5.725863 5.823430 # 4
84 4 0.336224 1.269436 6.871859 # 4
85 1 -5.648920 -6.374093 24.787363 # 1
86 2 -9.431103 -9.256072 20.958036 # 2
87 2 -7.312360 -9.870749 25.150110 # 2
88 3 -9.465680 -2.101847 25.170700 # 3
89 3 -11.295016 -9.607022 25.218084 # 3
90 3 -11.100704 -12.614012 25.243607 # 3
91 3 -9.294442 -5.076439 25.104496 # 3
92 3 -7.378501 -11.332544 22.278620 # 3
93 3 -9.353330 -7.808753 23.690416 # 3
94 4 -3.902777 -9.740311 20.478048 # 4
95 4 -12.831910 -9.266336 25.453718 # 4
96 4 -9.408818 -6.184855 23.950947 # 4
97 4 -5.916811 -3.010972 26.669682 # 4
98 4 -12.451788 -12.883321 26.022917 # 4
99 4 -8.135863 -10.666783 26.445925 # 4
100 4 -10.608971 -5.216838 25.973513 # 4
101 4 -6.102009 -10.649669 21.476824 # 4
102 4 -10.723525 -8.469105 24.169779 # 4
103 4 -9.186903 -7.996934 22.086952 # 4
104 4 -7.124745 -11.002775 23.815376 # 4
105 4 -9.182776 -3.599346 24.466820 # 4
106 4 -11.158244 -11.119258 24.633726 # 4
107 4 -8.694517 -10.735157 21.640944 # 4
108 4 -8.118501 -8.428319 24.589128 # 4
109 4 -9.740733 -12.864324 26.089624 # 4
110 4 -8.824357 -2.267674 26.665005 # 4
111 4 -7.911694 -5.462725 25.851332 # 4
112 4 -10.563825 -9.607554 26.744478 # 4
113 1 -7.482903 -14.096894 24.623749 # 1
114 4 -11.091337 -13.651059 23.944885 # 4
115 1 -7.246578 2.479503 21.495642 # 1
116 1 -1.757741 -2.727836 17.827032 # 1
117 1 -9.186633 -5.006494 21.421984 # 1
118 2 -5.411246 -2.363717 25.063814 # 2
119 2 -5.673099 -5.469777 14.224876 # 2
120 2 -3.457734 -5.953970 18.367041 # 2
121 2 -7.502804 -1.773127 21.005421 # 2
122 3 -5.412247 -9.348388 20.754116 # 3
123 3 -5.548931 1.551485 18.493763 # 3
124 3 -3.495993 -1.866483 20.754492 # 3
125 3 -7.429554 -5.944325 18.492504 # 3
126 3 -3.535408 1.091136 20.828032 # 3
127 3 -7.471092 -8.938932 18.501097 # 3
128 3 -5.467050 -6.398414 20.845209 # 3
129 3 -5.488241 -1.395463 18.492249 # 3
130 3 -3.698217 -7.423557 15.637943 # 3
131 3 -7.455976 -0.308147 23.719479 # 3
132 3 -5.485097 -3.740938 22.311470 # 3
133 3 -5.445551 -4.044386 16.917084 # 3
134 4 -10.960206 -1.741487 25.368311 # 4
135 4 -0.117781 -5.939164 13.994168 # 4
136 4 -8.986800 -5.554291 18.703121 # 4
137 4 -1.941757 -2.292659 20.566996 # 4
138 4 -3.415429 2.131775 22.037165 # 4
139 4 -5.318185 -5.392936 22.106028 # 4
140 4 -5.561567 -2.427037 17.222212 # 4
141 4 -2.212428 1.254502 19.973413 # 4
142 4 -8.801450 -9.025089 19.338266 # 4
143 4 -4.230011 -6.340994 19.886492 # 4
144 4 -6.748054 -1.425450 19.464619 # 4
145 4 -2.320003 -6.737254 14.998248 # 4
146 4 -8.904460 -0.935608 24.185955 # 4
147 4 -4.169869 -3.055793 21.584213 # 4
148 4 -6.738311 -4.810179 17.583559 # 4
149 4 -5.546014 -3.662894 23.921005 # 4
150 4 -5.603674 -4.075537 15.304514 # 4
151 4 -3.707780 -7.335943 17.245333 # 4
152 4 -7.220078 -0.431469 22.105900 # 4
153 4 -5.523066 -7.893446 21.511314 # 4
154 4 -5.343843 0.099279 17.755775 # 4
155 4 -3.759994 -0.438921 21.464186 # 4
156 4 -7.284921 -7.438395 17.802902 # 4
157 4 -6.282847 -0.872004 24.674288 # 4
158 4 -4.975609 -6.897512 14.851810 # 4
159 4 -4.113145 -4.660105 17.487036 # 4
160 4 -6.758214 -3.253205 21.454201 # 4
161 4 -6.185645 -9.363214 19.314642 # 4
162 4 -4.826980 1.463600 20.005253 # 4
163 4 -4.081881 -1.799037 19.229107 # 4
164 4 -6.857610 -6.112217 20.002346 # 4
165 5 4.455713 8.826413 5.375151 # 5
166 5 -1.692053 -0.778082 5.348996 # 5
167 5 2.350196 0.904940 5.425186 # 5
168 5 0.371587 6.132838 5.210394 # 5
169 5 0.481353 -1.602198 6.006762 # 5
170 5 1.746868 8.111425 6.277018 # 5
171 5 2.367720 5.884953 5.809532 # 5
172 5 -0.146858 0.480770 6.748669 # 5
173 5 -5.636598 -3.878313 26.959146 # 5
174 5 -12.464315 -12.856592 27.020802 # 5
175 5 -7.701356 -10.866696 27.313925 # 5
176 5 -10.759945 -4.648431 26.778721 # 5
177 5 -9.087102 -12.135925 26.030996 # 5
178 5 -7.872323 -2.571105 26.653130 # 5
179 5 -7.934315 -5.830938 26.833305 # 5
180 5 -9.671025 -10.011170 26.775944 # 5
181 1 3.484351 -10.267164 17.906761 # 1
182 4 -0.357402 -9.976119 17.265673 # 4
183 1 3.651790 6.290137 14.775373 # 1
184 1 9.119027 1.010802 11.189642 # 1
185 1 1.749197 -1.210623 14.829700 # 1
186 2 5.640332 1.515767 18.295271 # 2
187 2 5.323741 -1.653926 7.504731 # 2
188 2 7.435697 -2.207036 11.575761 # 2
189 2 3.434716 2.024632 14.209842 # 2
190 3 5.512863 -5.523272 14.104722 # 3
191 3 5.373350 5.421268 11.837173 # 3
192 3 7.424906 2.003203 14.133656 # 3
193 3 3.508300 -2.107116 11.849174 # 3
194 3 7.396328 4.990427 14.057217 # 3
195 3 3.514365 -5.076424 11.846646 # 3
196 3 5.447781 -2.586800 14.124810 # 3
197 3 5.429774 2.473063 11.827443 # 3
198 3 7.346849 -3.669781 8.857532 # 3
199 3 3.586693 3.469630 16.928703 # 3
200 3 5.428075 0.074357 15.648934 # 3
201 3 5.495078 -0.168216 10.281461 # 3
202 4 0.114608 1.863984 18.727762 # 4
203 4 10.927451 -2.155827 7.107244 # 4
204 4 1.931428 -1.684697 11.884045 # 4
205 4 8.950411 1.619525 14.033969 # 4
206 4 7.499390 5.974452 15.357957 # 4
207 4 5.555765 -1.552101 15.413806 # 4
208 4 5.287624 1.456535 10.554749 # 4
209 4 8.712394 5.086412 13.166470 # 4
210 4 2.242590 -5.103323 12.753186 # 4
211 4 6.577812 -2.598178 12.973916 # 4
212 4 4.051348 2.522520 12.663734 # 4
213 4 8.798515 -3.066052 8.246262 # 4
214 4 2.291253 2.733403 17.607063 # 4
215 4 6.704208 0.853017 14.997363 # 4
216 4 4.284129 -0.984449 11.054071 # 4
217 4 5.573146 0.248672 17.209070 # 4
218 4 5.386292 -0.314777 8.726633 # 4
219 4 7.211264 -3.445592 10.461505 # 4
220 4 3.578095 3.361047 15.321695 # 4
221 4 5.264738 -4.057383 14.830080 # 4
222 4 5.641041 3.905314 11.172713 # 4
223 4 7.229637 3.485465 14.760841 # 4
224 4 3.795236 -3.613183 11.155275 # 4
225 4 4.962358 3.013048 17.635620 # 4
226 4 6.150017 -3.175355 7.903611 # 4
227 4 6.793555 -0.640515 11.049651 # 4
228 4 4.118034 0.562854 14.929770 # 4
229 4 4.801940 -5.522551 12.651098 # 4
230 4 5.978844 5.293041 13.286119 # 4
231 4 6.744118 2.096690 12.664111 # 4
232 4 4.034615 -2.090171 13.432682 # 4
233 1 7.243468 -6.416850 11.125461 # 1
234 4 3.387484 -6.140086 10.612868 # 4
235 1 7.410023 10.120469 7.987629 # 1
236 1 5.535508 2.567632 7.976385 # 1
237 2 9.386890 5.312038 11.638049 # 2
238 2 7.171042 5.841722 7.533031 # 2
239 3 9.360908 -1.842750 7.377372 # 3
240 3 11.240797 5.644212 7.340226 # 3
241 3 10.885927 8.628443 7.469859 # 3
242 3 9.099361 1.041827 7.471376 # 3
243 3 7.350540 7.256271 10.274637 # 3
244 3 9.230502 3.804315 8.948120 # 3
245 4 3.841601 5.816913 12.092771 # 4
246 4 12.812044 5.386334 7.136178 # 4
247 4 11.146321 9.743663 8.629978 # 4
248 4 9.284439 2.208811 8.604328 # 4
249 4 12.199764 8.934074 6.541713 # 4
250 4 6.043860 -0.795212 6.047067 # 4
251 4 10.383828 1.342427 6.494841 # 4
252 4 8.009577 6.415092 6.084589 # 4
253 4 6.074735 6.517098 10.883252 # 4
254 4 10.573460 4.536954 8.290611 # 4
255 4 9.376257 3.867098 10.515456 # 4
256 4 7.410367 7.127635 8.717664 # 4
257 4 9.149550 -0.464488 8.226553 # 4
258 4 10.990503 7.116747 8.036022 # 4
259 4 8.735821 6.691152 10.901191 # 4
260 4 7.858748 4.440626 8.363514 # 4
261 4 8.682084 -1.723232 5.906315 # 4
262 4 9.482953 8.841068 6.740713 # 4
263 4 10.633117 5.607431 5.860828 # 4
264 4 7.740432 1.185285 6.651129 # 4
265 1 1.647400 -6.488281 24.659754 # 1
266 2 -2.277604 -9.292965 21.004028 # 2
267 2 -0.161331 -9.853883 25.054461 # 2
268 3 -2.285402 -2.095936 25.190031 # 3
269 3 -4.214194 -9.604966 25.319540 # 3
270 3 -3.966906 -12.588276 25.176891 # 3
271 3 -1.988814 -5.034558 25.212399 # 3
272 3 -0.221132 -11.276427 22.298960 # 3
273 3 -2.213544 -7.716254 23.734766 # 3
274 4 3.328059 -9.657566 20.702566 # 4
275 4 -5.741503 -9.231396 25.612160 # 4
276 4 -2.247247 -6.075732 24.003761 # 4
277 4 0.856155 -2.978719 26.429876 # 4
278 4 -5.221598 -12.729905 26.073328 # 4
279 4 -0.922395 -10.656202 26.410040 # 4
280 4 -3.284741 -5.324016 26.251854 # 4
281 4 1.125768 -10.569042 21.596346 # 4
282 4 -3.552368 -8.411665 24.433722 # 4
283 4 -2.147372 -8.027289 22.150505 # 4
284 4 -0.003216 -11.163504 23.897125 # 4
285 4 -1.928598 -3.575652 24.522669 # 4
286 4 -4.027519 -11.033429 24.568789 # 4
287 4 -1.612785 -10.691700 21.728754 # 4
288 4 -0.946539 -8.361789 24.574474 # 4
289 4 -2.607927 -12.815301 26.059177 # 4
290 4 -1.598989 -2.080913 26.688887 # 4
291 4 -0.505302 -5.403834 25.894672 # 4
292 4 -3.489041 -9.842001 26.813469 # 4
293 1 -0.285263 -13.924392 24.648766 # 1
294 4 -4.026571 -13.633900 23.882597 # 4
295 1 -0.061977 2.471270 21.429440 # 1
296 1 5.489485 -2.746028 17.858112 # 1
297 1 -1.989955 -5.059625 21.476694 # 1
298 2 1.806181 -2.373103 25.040815 # 2
299 2 1.537359 -5.464271 14.324062 # 2
300 2 3.761876 -5.994757 18.369820 # 2
301 2 -0.342027 -1.730310 21.061766 # 2
302 3 1.792271 -9.321113 20.820448 # 3
303 3 1.659970 1.545003 18.546455 # 3
304 3 3.649097 -1.808286 20.738571 # 3
305 3 -0.306086 -5.980337 18.493010 # 3
306 3 3.658407 1.169972 20.825373 # 3
307 3 -0.247590 -8.916624 18.484673 # 3
308 3 1.740645 -6.406103 20.823099 # 3
309 3 1.676421 -1.397164 18.514992 # 3
310 3 3.582247 -7.424673 15.653107 # 3
311 3 -0.196090 -0.210262 23.681952 # 3
312 3 1.695077 -3.713741 22.328775 # 3
313 3 1.690370 -4.042551 16.960417 # 3
314 4 -3.826328 -1.811122 25.301218 # 4
315 4 7.035662 -5.904819 13.865801 # 4
316 4 -1.831138 -5.496613 18.768066 # 4
317 4 5.199666 -2.187688 20.614244 # 4
318 4 3.921629 2.136319 22.050690 # 4
319 4 1.744302 -5.307930 21.973236 # 4
320 4 1.533460 -2.450269 17.335793 # 4
321 4 4.822414 1.113822 19.781496 # 4
322 4 -1.526009 -9.086009 19.440989 # 4
323 4 3.031366 -6.380356 19.869938 # 4
324 4 0.429400 -1.437103 19.527660 # 4
325 4 4.858536 -6.743890 14.934823 # 4
326 4 -1.567249 -0.836870 24.316090 # 4
327 4 2.907990 -2.983648 21.564753 # 4
328 4 0.358249 -4.747817 17.608072 # 4
329 4 1.914388 -3.717259 23.937557 # 4
330 4 1.736294 -4.033877 15.370214 # 4
331 4 3.643590 -7.298179 17.230927 # 4
332 4 -0.289607 -0.297066 22.080505 # 4
333 4 1.579132 -7.873350 21.547071 # 4
334 4 1.965745 0.101922 17.900442 # 4
335 4 3.441359 -0.365350 21.465322 # 4
336 4 -0.186281 -7.438051 17.782049 # 4
337 4 1.110309 -0.919288 24.425762 # 4
338 4 2.256881 -6.875800 15.036912 # 4
339 4 3.002161 -4.543856 17.633465 # 4
340 4 0.290108 -3.169269 21.820358 # 4
341 4 1.147018 -9.131394 19.318815 # 4
342 4 2.270053 1.642268 20.024841 # 4
343 4 3.064949 -1.760615 19.292154 # 4
344 4 0.398762 -6.065193 20.001720 # 4
345 5 12.328298 8.408489 5.776934 # 5
346 5 5.692499 -0.883600 5.175651 # 5
347 5 10.495323 0.606791 5.824819 # 5
348 5 7.604290 5.934400 5.345080 # 5
349 5 7.696767 -1.645139 5.859691 # 5
350 5 8.908743 7.995002 6.646584 # 5
351 5 9.684093 5.820997 5.784266 # 5
352 5 7.073958 0.494117 6.294704 # 5
353 5 1.279290 -3.208591 27.272867 # 5
354 5 -5.509183 -13.277521 26.849098 # 5
355 5 -1.348233 -11.488549 26.202452 # 5
356 5 -3.450902 -4.722588 27.020546 # 5
357 5 -2.650901 -13.075809 27.047588 # 5
358 5 -0.628185 -2.304816 26.837727 # 5
359 5 0.096399 -4.615124 26.102133 # 5
360 5 -2.555645 -10.006161 26.635191 # 5
361 1 10.613148 -10.223083 17.853315 # 1
362 4 6.875917 -9.873714 17.223471 # 4
363 1 10.798921 6.263588 14.772089 # 1
364 1 16.235842 1.054476 11.144284 # 1
365 1 8.936392 -1.185405 14.836146 # 1
366 2 12.832647 1.556210 18.293381 # 2
367 2 12.522280 -1.609652 7.508646 # 2
368 2 14.636192 -2.184190 11.635775 # 2
369 2 10.620247 2.011282 14.302709 # 2
370 3 12.759000 -5.495770 14.128098 # 3
371 3 12.566850 5.383236 11.806722 # 3
372 3 14.586726 2.001450 14.070103 # 3
373 3 10.633032 -2.152597 11.824284 # 3
374 3 14.581997 4.937302 14.121652 # 3
375 3 10.712981 -5.036302 11.818221 # 3
376 3 12.688242 -2.561674 14.103837 # 3
377 3 12.565454 2.448099 11.818851 # 3
378 3 14.584198 -3.707185 8.877111 # 3
379 3 10.775440 3.471003 16.960545 # 3
380 3 12.583199 0.030037 15.661319 # 3
381 3 12.609079 -0.198119 10.330359 # 3
382 4 7.241896 2.134618 18.679873 # 4
383 4 18.028481 -2.204067 7.061253 # 4
384 4 9.101148 -1.799204 11.957200 # 4
385 4 16.119549 1.461206 13.989492 # 4
386 4 14.717325 6.002748 15.364275 # 4
387 4 12.831480 -1.484943 15.276337 # 4
388 4 12.517848 1.453067 10.576607 # 4
389 4 15.775664 4.901028 13.124143 # 4
390 4 9.479945 -5.092557 12.790080 # 4
391 4 13.966871 -2.624477 13.189590 # 4
392 4 11.340834 2.357053 12.785407 # 4
393 4 15.981958 -3.044489 8.338243 # 4
394 4 9.521938 2.739852 17.626394 # 4
395 4 13.772674 0.934095 15.001659 # 4
396 4 11.311377 -0.932423 10.981045 # 4
397 4 12.657863 0.194893 17.250385 # 4
398 4 12.648518 -0.260440 8.702629 # 4
399 4 14.436687 -3.430863 10.433837 # 4
400 4 10.810953 3.295366 15.367562 # 4
401 4 12.483051 -4.059375 14.877333 # 4
402 4 12.661287 3.898274 11.131775 # 4
403 4 14.524356 3.419796 14.795337 # 4
404 4 10.842723 -3.599546 11.098421 # 4
405 4 12.126968 3.036460 17.640545 # 4
406 4 13.382445 -3.130275 8.024270 # 4
407 4 13.954956 -0.739532 10.923429 # 4
408 4 11.145431 0.488163 15.099199 # 4
409 4 12.078168 -5.328139 12.597403 # 4
410 4 13.229073 5.269707 13.327182 # 4
411 4 13.943260 2.059445 12.552549 # 4
412 4 11.338461 -2.270833 13.298753 # 4
413 1 14.378015 -6.521671 11.202151 # 1
414 4 10.545708 -6.131177 10.618934 # 4
415 1 14.623819 10.076228 7.994200 # 1
416 1 12.737839 2.619303 7.982828 # 1
417 2 16.584435 5.309771 11.639943 # 2
418 2 14.398552 5.813536 7.548319 # 2
419 3 16.542843 -1.869555 7.339342 # 3
420 3 18.444614 5.691136 7.400496 # 3
421 3 18.124561 8.603902 7.472009 # 3
422 3 16.272984 1.094512 7.439916 # 3
423 3 14.568888 7.279921 10.322143 # 3
424 3 16.489180 3.815032 8.905921 # 3
425 4 11.054003 5.764260 11.970593 # 4
426 4 19.988504 5.405150 7.169532 # 4
427 4 18.259117 9.707814 8.656258 # 4
428 4 16.628098 2.151649 8.602687 # 4
429 4 19.397362 8.826895 6.466664 # 4
430 4 13.288123 -0.833387 6.057301 # 4
431 4 17.510271 1.324249 6.294452 # 4
432 4 15.270766 6.700208 6.137279 # 4
433 4 13.318246 6.507358 10.995576 # 4
434 4 17.793564 4.530982 8.314363 # 4
435 4 16.370825 3.938676 10.498779 # 4
436 4 14.551054 7.079409 8.723350 # 4
437 4 16.241394 -0.404229 8.088456 # 4
438 4 18.254158 7.106708 8.200147 # 4
439 4 15.939354 6.860172 11.006186 # 4
440 4 15.199923 4.406776 8.138363 # 4
441 4 15.847547 -1.825268 5.841248 # 4
442 4 16.663599 8.758185 6.789735 # 4
443 4 17.809685 5.708470 5.891279 # 4
444 4 14.742494 1.396176 6.857456 # 4
445 1 8.900576 -6.191812 24.819204 # 1
446 2 4.992805 -9.300897 21.170174 # 2
447 2 7.139264 -9.898306 25.151873 # 2
448 3 4.961512 -2.114928 25.229961 # 3
449 3 2.897433 -9.595976 25.233620 # 3
450 3 3.254797 -12.553213 25.200394 # 3
451 3 5.115943 -5.122475 25.331039 # 3
452 3 7.008679 -11.299636 22.367189 # 3
453 3 5.036736 -7.801982 23.789095 # 3
454 4 10.433564 -9.784266 20.782793 # 4
455 4 1.402135 -9.155918 25.557575 # 4
456 4 4.778664 -6.154838 24.154997 # 4
457 4 8.059744 -3.167482 26.396898 # 4
458 4 2.075242 -12.909627 26.283312 # 4
459 4 6.245991 -10.401629 26.535625 # 4
460 4 3.884248 -5.158778 26.367588 # 4
461 4 8.169184 -10.559573 21.510426 # 4
462 4 3.550452 -8.460190 24.302443 # 4
463 4 5.195002 -7.826703 22.134960 # 4
464 4 7.171222 -11.127376 23.926939 # 4
465 4 5.362033 -3.610835 24.697657 # 4
466 4 3.045569 -11.079751 24.541872 # 4
467 4 5.546199 -10.806025 21.910067 # 4
468 4 6.255380 -8.498347 24.578262 # 4
469 4 4.744317 -12.653227 25.913116 # 4
470 4 5.698671 -1.991874 26.757620 # 4
471 4 6.565032 -5.565627 25.942427 # 4
472 4 3.638921 -9.756808 26.691921 # 4
473 1 6.971565 -13.953464 24.773718 # 1
474 4 3.059766 -13.727342 24.080200 # 4
475 1 7.130843 2.468429 21.516239 # 1
476 1 12.550183 -2.768740 17.848766 # 1
477 1 5.249516 -4.969586 21.531279 # 1
478 2 8.981263 -2.342255 25.122314 # 2
479 2 8.748864 -5.496290 14.285903 # 2
480 2 10.929933 -5.973504 18.385988 # 2
481 2 6.819293 -1.790056 21.034475 # 2
482 3 8.950931 -9.342312 20.788984 # 3
483 3 8.771369 1.589497 18.520805 # 3
484 3 10.890217 -1.843166 20.792522 # 3
485 3 6.857676 -5.983512 18.541651 # 3
486 3 10.806643 1.126476 20.821457 # 3
487 3 6.897925 -8.935961 18.574757 # 3
488 3 8.917007 -6.442844 20.844200 # 3
489 3 8.821597 -1.394838 18.582333 # 3
490 3 10.776671 -7.435381 15.701877 # 3
491 3 6.972780 -0.267625 23.720993 # 3
492 3 8.878698 -3.729408 22.361881 # 3
493 3 8.831238 -3.988493 17.033699 # 3
494 4 3.420844 -1.851130 25.468628 # 4
495 4 14.262628 -5.955818 13.950580 # 4
496 4 5.347803 -5.479600 18.696297 # 4
497 4 12.440055 -2.129498 20.645580 # 4
498 4 10.863466 2.168869 22.038181 # 4
499 4 8.910139 -5.407619 22.168186 # 4
500 4 8.559451 -2.445490 17.421207 # 4
501 4 12.109936 1.150263 19.865013 # 4
502 4 5.653975 -9.178962 19.526146 # 4
503 4 10.267271 -6.408104 19.979986 # 4
504 4 7.644528 -1.418183 19.604738 # 4
505 4 11.989923 -6.649396 14.949859 # 4
506 4 5.575540 -0.908843 24.251022 # 4
507 4 10.137107 -3.051456 21.528748 # 4
508 4 7.552683 -4.822971 17.644461 # 4
509 4 9.131047 -3.550365 23.882214 # 4
510 4 8.789253 -4.176749 15.452970 # 4
511 4 10.836922 -7.384083 17.341103 # 4
512 4 7.000393 -0.386640 22.095287 # 4
513 4 8.775262 -7.895581 21.545429 # 4
514 4 8.860394 0.092844 17.858368 # 4
515 4 10.613449 -0.378507 21.460648 # 4
516 4 6.914303 -7.465033 17.953762 # 4
517 4 8.146051 -0.926854 24.584196 # 4
518 4 9.352980 -6.883654 15.066474 # 4
519 4 10.177194 -4.506641 17.718624 # 4
520 4 7.502137 -3.245289 21.638540 # 4
521 4 8.387487 -9.179395 19.236435 # 4
522 4 9.385964 1.578080 20.055416 # 4
523 4 10.312097 -1.687939 19.238956 # 4
524 4 7.633712 -6.016928 19.976704 # 4
525 5 19.525223 8.258300 5.750783 # 5
526 5 12.934734 -0.900125 5.188916 # 5
527 5 17.775097 0.531508 5.784390 # 5
528 5 14.636357 6.729148 5.377425 # 5
529 5 14.885748 -1.770288 5.675858 # 5
530 5 16.059814 8.038134 6.515054 # 5
531 5 16.895432 5.955736 5.734987 # 5
532 5 14.321429 0.610525 6.534133 # 5
533 5 7.608511 -4.058066 26.218876 # 5
534 5 2.549326 -13.044407 27.143358 # 5
535 5 6.587654 -10.017417 27.398075 # 5
536 5 4.262216 -4.987959 27.326691 # 5
537 5 5.349546 -11.910065 26.210155 # 5
538 5 6.566593 -2.504105 26.771395 # 5
539 5 6.496800 -6.077005 26.754210 # 5
540 5 4.671205 -9.774179 26.652882 # 5
541 1 17.938585 -10.236217 17.794054 # 1
542 4 13.926010 -9.885736 17.304970 # 4
543 1 18.001110 6.301620 14.802032 # 1
544 1 23.438145 1.042363 11.230200 # 1
545 1 16.196438 -1.205340 14.894390 # 1
546 2 20.011480 1.563332 18.401403 # 2
547 2 19.670572 -1.641518 7.508142 # 2
548 2 21.917192 -2.215282 11.543540 # 2
549 2 17.750929 2.019356 14.294368 # 2
550 3 19.912189 -5.481184 14.105227 # 3
551 3 19.769142 5.403577 11.870655 # 3
552 3 21.776047 1.979020 14.127085 # 3
553 3 17.875069 -2.115576 11.884425 # 3
554 3 21.801138 4.917534 14.111797 # 3
555 3 17.904039 -5.081973 11.821125 # 3
556 3 19.855196 -2.557034 14.165244 # 3
557 3 19.794596 2.467871 11.797372 # 3
558 3 21.740509 -3.675635 8.870036 # 3
559 3 17.944685 3.470201 16.970524 # 3
560 3 19.813307 0.104681 15.703137 # 3
561 3 19.888584 -0.242566 10.284872 # 3
562 4 14.486283 1.979305 18.612787 # 4
563 4 25.303188 -2.132447 7.258607 # 4
564 4 16.317442 -1.791514 11.894660 # 4
565 4 23.291939 1.549511 13.904461 # 4
566 4 21.688637 5.946144 15.399907 # 4
567 4 20.040306 -1.464492 15.340395 # 4
568 4 19.726465 1.382394 10.558413 # 4
569 4 22.967745 4.943283 13.134504 # 4
570 4 16.630705 -5.181386 12.748766 # 4
571 4 21.058794 -2.403455 13.128943 # 4
572 4 18.508507 2.318370 12.722992 # 4
573 4 23.125530 -3.103029 8.176014 # 4
574 4 16.624638 2.745563 17.607439 # 4
575 4 21.044996 0.862270 14.926611 # 4
576 4 18.536709 -0.855922 11.071633 # 4
577 4 19.953396 0.314234 17.250891 # 4
578 4 19.657057 -0.334336 8.715514 # 4
579 4 21.909786 -3.568127 10.473886 # 4
580 4 17.808411 3.387353 15.374762 # 4
581 4 19.658888 -4.012517 14.856611 # 4
582 4 19.835190 3.955878 11.104486 # 4
583 4 21.631264 3.483852 14.843346 # 4
584 4 18.144373 -3.605325 11.223629 # 4
585 4 19.313608 3.042170 17.683628 # 4
586 4 20.481880 -3.064793 8.107280 # 4
587 4 21.350739 -0.766719 10.746040 # 4
588 4 18.494440 0.529903 15.013916 # 4
589 4 19.286371 -5.516096 12.630377 # 4
590 4 20.428228 5.284434 13.333372 # 4
591 4 21.181208 2.150562 12.631262 # 4
592 4 18.448982 -2.261769 13.410191 # 4
593 1 21.634600 -6.402358 11.125461 # 1
594 4 17.784710 -6.099375 10.496881 # 4
595 1 21.821581 10.100672 7.937469 # 1
596 1 19.889338 2.559370 7.971457 # 1
597 2 23.775396 5.357128 11.636532 # 2
598 2 21.593014 5.884480 7.559566 # 2
599 3 23.740948 -1.863820 7.381164 # 3
600 3 25.649511 5.652139 7.335678 # 3
601 3 25.324125 8.593108 7.479969 # 3
602 3 23.449263 1.128268 7.503846 # 3
603 3 21.756243 7.309908 10.287903 # 3
604 3 23.662176 3.800342 8.938898 # 3
605 4 18.222158 5.832186 12.058912 # 4
606 4 27.239151 5.280409 7.158160 # 4
607 4 25.635134 9.690906 8.621513 # 4
608 4 23.586405 2.175905 8.756324 # 4
609 4 26.657822 8.832649 6.559151 # 4
610 4 20.571424 -1.025916 6.089770 # 4
611 4 24.795687 1.484241 6.598066 # 4
612 4 22.335997 6.591637 6.153071 # 4
613 4 20.398340 6.673652 11.018190 # 4
614 4 25.057800 4.486009 8.433381 # 4
615 4 23.541910 4.031622 10.539841 # 4
616 4 21.700050 7.185442 8.707682 # 4
617 4 23.492109 -0.345965 8.091991 # 4
618 4 25.307318 7.089176 8.159461 # 4
619 4 23.122181 6.824579 11.038531 # 4
620 4 22.457890 4.447892 8.038925 # 4
621 4 23.183758 -1.813555 5.801827 # 4
622 4 23.957750 8.749246 6.731615 # 4
623 4 24.942099 5.666691 5.868664 # 4
624 4 22.039242 1.262792 6.741341 # 4
625 1 15.971435 -6.458218 24.637138 # 1
626 2 12.126235 -9.241747 21.052797 # 2
627 2 14.301407 -9.838004 25.015421 # 2
628 3 12.148039 -2.087771 25.295788 # 3
629 3 10.164361 -9.622443 25.208097 # 3
630 3 10.494015 -12.560517 25.055983 # 3
631 3 12.468786 -5.000119 25.187885 # 3
632 3 14.203473 -11.219572 22.262196 # 3
633 3 12.205559 -7.777251 23.716066 # 3
634 4 17.695660 -9.739655 20.413992 # 4
635 4 8.701158 -9.103180 25.547213 # 4
636 4 12.172818 -6.176454 24.060364 # 4
637 4 15.287778 -2.859846 26.470310 # 4
638 4 9.271532 -12.791105 26.108700 # 4
639 4 13.428466 -10.432643 26.397532 # 4
640 4 11.192908 -5.166819 26.255642 # 4
641 4 15.507235 -10.567285 21.560837 # 4
642 4 10.956300 -8.556009 24.319757 # 4
643 4 12.149486 -7.862023 22.107540 # 4
644 4 14.383560 -11.198572 23.878801 # 4
645 4 12.433600 -3.496401 24.452293 # 4
646 4 10.279538 -11.090854 24.510408 # 4
647 4 12.858485 -10.694433 21.624895 # 4
648 4 13.514233 -8.415915 24.350965 # 4
649 4 11.940483 -12.823945 25.767694 # 4
650 4 12.941921 -1.941681 26.725403 # 4
651 4 13.882188 -5.120256 25.928659 # 4
652 4 10.927607 -9.757621 26.595766 # 4
653 1 14.108122 -13.978996 24.631453 # 1
654 4 10.371288 -13.677132 23.937046 # 4
655 1 14.285738 2.467451 21.480988 # 1
656 1 19.776386 -2.759284 17.797850 # 1
657 1 12.442372 -5.002377 21.489956 # 1
658 2 16.221756 -2.323163 25.087183 # 2
659 2 15.896324 -5.469618 14.281483 # 2
660 2 18.123180 -6.013967 18.335199 # 2
661 2 14.038408 -1.739029 21.063288 # 2
662 3 16.155272 -9.307153 20.747036 # 3
663 3 15.998961 1.573727 18.537863 # 3
664 3 18.100307 -1.800817 20.760050 # 3
665 3 14.089162 -5.891721 18.551510 # 3
666 3 18.057051 1.113734 20.812737 # 3
667 3 14.135897 -8.856119 18.532177 # 3
668 3 16.178719 -6.429650 20.793156 # 3
669 3 16.076147 -1.363119 18.507160 # 3
670 3 17.956722 -7.441202 15.673067 # 3
671 3 14.148442 -0.321153 23.786819 # 3
672 3 16.096180 -3.733014 22.329536 # 3
673 3 16.069771 -4.056459 16.975456 # 3
674 4 10.564962 -1.901689 25.572231 # 4
675 4 21.413233 -5.897432 13.912045 # 4
676 4 12.553774 -5.396245 18.789417 # 4
677 4 19.645222 -2.228197 20.623854 # 4
678 4 18.247627 2.148741 22.064209 # 4
679 4 16.244650 -5.394989 22.092758 # 4
680 4 15.898639 -2.412553 17.268957 # 4
681 4 19.432192 1.077708 19.971138 # 4
682 4 12.871244 -8.902347 19.495949 # 4
683 4 17.500648 -6.384523 19.886492 # 4
684 4 14.851243 -1.486930 19.510098 # 4
685 4 19.254173 -6.568679 15.063443 # 4
686 4 12.629211 -0.761405 24.375982 # 4
687 4 17.393803 -2.958561 21.635891 # 4
688 4 14.773229 -4.816056 17.522913 # 4
689 4 16.212250 -3.569766 23.909761 # 4
690 4 15.986854 -4.072325 15.335593 # 4
691 4 18.097668 -7.470949 17.304081 # 4
692 4 14.179211 -0.418789 22.171598 # 4
693 4 15.997357 -7.855396 21.548328 # 4
694 4 16.167395 0.106932 17.878204 # 4
695 4 17.757420 -0.397843 21.396845 # 4
696 4 14.202598 -7.373533 17.847630 # 4
697 4 15.312175 -0.986604 24.624630 # 4
698 4 16.561255 -6.917399 15.116890 # 4
699 4 17.408449 -4.596130 17.593672 # 4
700 4 14.707112 -3.192566 21.784218 # 4
701 4 15.563273 -9.082937 19.246540 # 4
702 4 16.718637 1.655794 19.987947 # 4
703 4 17.453150 -1.765234 19.235674 # 4
704 4 14.827345 -5.983453 19.994770 # 4
705 5 26.571295 8.767411 5.637952 # 5
706 5 20.196754 -0.278898 5.541930 # 5
707 5 24.691723 1.377821 5.640987 # 5
708 5 21.776234 6.663484 5.376541 # 5
709 5 22.194391 -1.704578 5.674846 # 5
710 5 23.416990 7.953452 6.523519 # 5
711 5 23.989723 5.748669 5.723239 # 5
712 5 21.545156 0.426647 6.553337 # 5
713 5 14.446787 -2.415201 26.794641 # 5
714 5 9.515515 -12.610699 27.077787 # 5
715 5 13.865670 -10.409348 27.281076 # 5
716 5 11.436687 -5.004059 27.231169 # 5
717 5 12.360732 -12.092365 26.203085 # 5
718 5 12.317789 -2.026369 27.529980 # 5
719 5 14.456832 -4.276333 25.966690 # 5
720 5 11.932091 -9.993257 26.595390 # 5
721 1 25.088308 -10.287208 17.822859 # 1
722 4 21.141493 -9.996077 17.303072 # 4
723 1 25.260357 6.320372 14.806705 # 1
724 1 30.700777 1.065784 11.077572 # 1
725 1 23.356306 -1.170431 14.854085 # 1
726 2 27.231567 1.545758 18.350744 # 2
727 2 26.906029 -1.627793 7.578266 # 2
728 2 29.054750 -2.194758 11.600270 # 2
729 2 24.933083 2.017664 14.315470 # 2
730 3 27.113918 -5.495940 14.090571 # 3
731 3 26.940001 5.369941 11.854483 # 3
732 3 28.982138 1.984378 14.106491 # 3
733 3 25.059883 -2.122793 11.850059 # 3
734 3 28.970375 4.907256 14.115336 # 3
735 3 25.073704 -5.038199 11.806217 # 3
736 3 27.014940 -2.577235 14.138076 # 3
737 3 26.952423 2.479140 11.780190 # 3
738 3 28.879868 -3.658340 8.953806 # 3
739 3 25.179129 3.492322 16.987453 # 3
740 3 26.935467 0.050741 15.708823 # 3
741 3 27.008764 -0.217985 10.315195 # 3
742 4 21.694016 1.985213 18.611650 # 4
743 4 32.499630 -2.134589 7.210217 # 4
744 4 23.507603 -1.667976 11.975270 # 4
745 4 30.476427 1.524307 13.991766 # 4
746 4 29.006721 6.028354 15.412540 # 4
747 4 27.138878 -1.550861 15.400664 # 4
748 4 26.848047 1.385895 10.600867 # 4
749 4 30.173914 4.991129 13.112014 # 4
750 4 23.760143 -5.068375 12.737142 # 4
751 4 28.298157 -2.411687 13.141705 # 4
752 4 25.629463 2.322589 12.761908 # 4
753 4 30.232674 -3.030719 8.243355 # 4
754 4 23.976246 2.683066 17.717487 # 4
755 4 28.225756 0.846435 15.035014 # 4
756 4 25.713291 -0.894770 11.024509 # 4
757 4 26.935404 0.169933 17.269966 # 4
758 4 26.926962 -0.288999 8.668766 # 4
759 4 28.897779 -3.667358 10.551589 # 4