LAMMPS data file. CGCMM style. atom_style full generated by VMD/TopoTools v1.7 on Wed Feb 12 14:03:35 +0100 2025
 475 atoms
 5 atom types
 -2.948999 14.337000  xlo xhi
 0 109.9973194  ylo yhi
 0.000219 12.902780  zlo zhi
 0.767938633 -6.348853 0.019226 xy xz yz

 Masses

1 39.0983 # K
2 26.981538 # Al
3 28.0855 # Si
4 15.9994 # O
5 2 # H

 Atoms # full

1	1	2.302	38.768002	0.907	#	1	MOL
2	4	1.115	38.778999	4.639	#	4	MOL
3	2	-0.337	41.172001	1.435	#	2	MOL
4	3	-0.291	49.348	1.451	#	3	MOL
5	3	5.339	40.32	2.202	#	3	MOL
6	3	5.393	50.200001	2.215	#	3	MOL
7	4	-2.879	40.657001	6.436	#	4	MOL
8	4	4.895	38.803001	1.812	#	4	MOL
9	4	6.708	40.691002	1.437	#	4	MOL
10	4	6.781	49.821999	1.467	#	4	MOL
11	4	-0.203	42.817001	1.664	#	4	MOL
12	4	-0.166	47.713001	1.679	#	4	MOL
13	4	0.557	40.393002	2.629	#	4	MOL
14	4	0.6	50.101002	2.635	#	4	MOL
15	1	6.669	45.231998	0.907	#	1	MOL
16	2	4.03	47.637001	1.435	#	2	MOL
17	3	3.986	42.883999	1.451	#	3	MOL
18	3	1.063	46.784	2.202	#	3	MOL
19	3	1.026	43.736	2.215	#	3	MOL
20	4	1.488	47.122002	6.436	#	4	MOL
21	4	0.619	45.266998	1.812	#	4	MOL
22	4	2.432	47.155998	1.437	#	4	MOL
23	4	2.414	43.356998	1.467	#	4	MOL
24	4	4.164	49.280998	1.664	#	4	MOL
25	4	4.11	41.249001	1.679	#	4	MOL
26	4	4.924	46.856998	2.629	#	4	MOL
27	4	4.876	43.637001	2.635	#	4	MOL
28	2	6.437	49.338001	5.016	#	2	MOL
29	3	6.391	41.161999	5	#	3	MOL
30	3	0.762	50.189999	4.249	#	3	MOL
31	3	0.708	40.310001	4.237	#	3	MOL
32	4	8.979	49.853001	0.015	#	4	MOL
33	4	1.205	51.707001	4.639	#	4	MOL
34	4	-0.608	49.819	5.014	#	4	MOL
35	4	-0.68	40.688999	4.984	#	4	MOL
36	4	6.303	47.693001	4.787	#	4	MOL
37	4	6.267	42.797001	4.773	#	4	MOL
38	4	5.543	50.117001	3.822	#	4	MOL
39	4	5.5	40.409	3.816	#	4	MOL
40	1	-0.569	45.278	5.544	#	1	MOL
41	2	2.071	42.874001	5.016	#	2	MOL
42	3	2.115	47.625999	5	#	3	MOL
43	3	5.038	43.726002	4.249	#	3	MOL
44	3	5.074	46.775002	4.237	#	3	MOL
45	4	4.613	43.389	0.015	#	4	MOL
46	4	5.482	45.243	4.639	#	4	MOL
47	4	3.669	43.355	5.014	#	4	MOL
48	4	3.686	47.153	4.984	#	4	MOL
49	4	1.937	41.229	4.787	#	4	MOL
50	4	1.99	49.262001	4.773	#	4	MOL
51	4	1.177	43.653	3.822	#	4	MOL
52	4	1.224	46.873001	3.816	#	4	MOL
53	4	4.985	51.731998	1.812	#	4	MOL
54	1	3.798	51.742001	5.544	#	1	MOL
55	5	0.32	52.375	4.594	#	5	MOL
56	5	5.544	52.444	2.454	#	5	MOL
57	1	10.945	38.768002	0.907	#	1	MOL
58	4	9.758	38.778999	4.639	#	4	MOL
59	2	8.306	41.172001	1.435	#	2	MOL
60	3	8.352	49.348	1.451	#	3	MOL
61	3	13.982	40.32	2.202	#	3	MOL
62	3	14.036	50.200001	2.215	#	3	MOL
63	4	5.764	40.657001	6.436	#	4	MOL
64	4	13.538	38.803001	1.812	#	4	MOL
65	4	15.351	40.691002	1.437	#	4	MOL
66	4	15.424	49.821999	1.467	#	4	MOL
67	4	8.44	42.817001	1.664	#	4	MOL
68	4	8.477	47.713001	1.679	#	4	MOL
69	4	9.2	40.393002	2.629	#	4	MOL
70	4	9.243	50.101002	2.635	#	4	MOL
71	1	15.312	45.231998	0.907	#	1	MOL
72	2	12.673	47.637001	1.435	#	2	MOL
73	3	12.629	42.883999	1.451	#	3	MOL
74	3	9.706	46.784	2.202	#	3	MOL
75	3	9.669	43.736	2.215	#	3	MOL
76	4	10.131	47.122002	6.436	#	4	MOL
77	4	9.262	45.266998	1.812	#	4	MOL
78	4	11.075	47.155998	1.437	#	4	MOL
79	4	11.057	43.356998	1.467	#	4	MOL
80	4	12.807	49.280998	1.664	#	4	MOL
81	4	12.753	41.249001	1.679	#	4	MOL
82	4	13.567	46.856998	2.629	#	4	MOL
83	4	13.519	43.637001	2.635	#	4	MOL
84	2	15.08	49.338001	5.016	#	2	MOL
85	3	15.034	41.161999	5	#	3	MOL
86	3	9.405	50.189999	4.249	#	3	MOL
87	3	9.351	40.310001	4.237	#	3	MOL
88	4	17.622	49.853001	0.015	#	4	MOL
89	4	9.848	51.707001	4.639	#	4	MOL
90	4	8.035	49.819	5.014	#	4	MOL
91	4	7.963	40.688999	4.984	#	4	MOL
92	4	14.946	47.693001	4.787	#	4	MOL
93	4	14.91	42.797001	4.773	#	4	MOL
94	4	14.186	50.117001	3.822	#	4	MOL
95	4	14.143	40.409	3.816	#	4	MOL
96	1	8.074	45.278	5.544	#	1	MOL
97	2	10.714	42.874001	5.016	#	2	MOL
98	3	10.758	47.625999	5	#	3	MOL
99	3	13.681	43.726002	4.249	#	3	MOL
100	3	13.717	46.775002	4.237	#	3	MOL
101	4	13.256	43.389	0.015	#	4	MOL
102	4	14.125	45.243	4.639	#	4	MOL
103	4	12.312	43.355	5.014	#	4	MOL
104	4	12.329	47.153	4.984	#	4	MOL
105	4	10.58	41.229	4.787	#	4	MOL
106	4	10.633	49.262001	4.773	#	4	MOL
107	4	9.82	43.653	3.822	#	4	MOL
108	4	9.867	46.873001	3.816	#	4	MOL
109	4	13.628	51.731998	1.812	#	4	MOL
110	1	12.441	51.742001	5.544	#	1	MOL
111	5	8.963	52.375	4.594	#	5	MOL
112	5	14.187	52.444	2.454	#	5	MOL
113	1	-0.872	38.778	7.358	#	1	MOL
114	4	-2.059	38.787998	11.09	#	4	MOL
115	2	-3.511	41.181999	7.887	#	2	MOL
116	3	-3.465	49.358002	7.902	#	3	MOL
117	3	2.164	40.330002	8.653	#	3	MOL
118	3	2.218	50.209999	8.666	#	3	MOL
119	4	-6.053	40.667	12.888	#	4	MOL
120	4	1.721	38.813	8.263	#	4	MOL
121	4	3.534	40.701	7.889	#	4	MOL
122	4	3.606	49.831001	7.918	#	4	MOL
123	4	-3.377	42.827	8.116	#	4	MOL
124	4	-3.341	47.723	8.13	#	4	MOL
125	4	-2.617	40.403	9.08	#	4	MOL
126	4	-2.574	50.111	9.087	#	4	MOL
127	1	3.494	45.242001	7.358	#	1	MOL
128	2	0.855	47.646	7.887	#	2	MOL
129	3	0.811	42.894001	7.902	#	3	MOL
130	3	-2.112	46.793999	8.653	#	3	MOL
131	3	-2.148	43.744999	8.666	#	3	MOL
132	4	-1.687	47.131001	12.888	#	4	MOL
133	4	-2.556	45.277	8.263	#	4	MOL
134	4	-0.743	47.165001	7.889	#	4	MOL
135	4	-0.76	43.367001	7.918	#	4	MOL
136	4	0.989	49.291	8.116	#	4	MOL
137	4	0.936	41.257999	8.13	#	4	MOL
138	4	1.749	46.867001	9.08	#	4	MOL
139	4	1.702	43.646999	9.087	#	4	MOL
140	2	3.263	49.348	11.467	#	2	MOL
141	3	3.217	41.172001	11.452	#	3	MOL
142	3	-2.413	50.200001	10.701	#	3	MOL
143	3	-2.467	40.32	10.688	#	3	MOL
144	4	5.805	49.862999	6.466	#	4	MOL
145	4	-1.969	51.716999	11.09	#	4	MOL
146	4	-3.782	49.828999	11.465	#	4	MOL
147	4	-3.855	40.698002	11.436	#	4	MOL
148	4	3.129	47.702999	11.238	#	4	MOL
149	4	3.092	42.806999	11.224	#	4	MOL
150	4	2.369	50.126999	10.274	#	4	MOL
151	4	2.326	40.418999	10.267	#	4	MOL
152	1	-3.743	45.287998	11.996	#	1	MOL
153	2	-1.104	42.882999	11.467	#	2	MOL
154	3	-1.06	47.636002	11.452	#	3	MOL
155	3	1.863	43.736	10.701	#	3	MOL
156	3	1.9	46.784	10.688	#	3	MOL
157	4	1.438	43.397999	6.466	#	4	MOL
158	4	2.307	45.252998	11.09	#	4	MOL
159	4	0.494	43.363998	11.465	#	4	MOL
160	4	0.512	47.162998	11.436	#	4	MOL
161	4	-1.238	41.238998	11.238	#	4	MOL
162	4	-1.184	49.271	11.224	#	4	MOL
163	4	-1.998	43.662998	10.274	#	4	MOL
164	4	-1.95	46.882999	10.267	#	4	MOL
165	4	1.811	51.741001	8.263	#	4	MOL
166	1	0.624	51.751999	11.996	#	1	MOL
167	5	-2.855	52.384998	11.046	#	5	MOL
168	5	2.37	52.453999	8.906	#	5	MOL
169	1	7.771	38.778	7.358	#	1	MOL
170	4	6.584	38.787998	11.09	#	4	MOL
171	2	5.132	41.181999	7.887	#	2	MOL
172	3	5.178	49.358002	7.902	#	3	MOL
173	3	10.807	40.330002	8.653	#	3	MOL
174	3	10.861	50.209999	8.666	#	3	MOL
175	4	2.59	40.667	12.888	#	4	MOL
176	4	10.364	38.813	8.263	#	4	MOL
177	4	12.177	40.701	7.889	#	4	MOL
178	4	12.249	49.831001	7.918	#	4	MOL
179	4	5.266	42.827	8.116	#	4	MOL
180	4	5.302	47.723	8.13	#	4	MOL
181	4	6.026	40.403	9.08	#	4	MOL
182	4	6.069	50.111	9.087	#	4	MOL
183	1	12.137	45.242001	7.358	#	1	MOL
184	2	9.498	47.646	7.887	#	2	MOL
185	3	9.454	42.894001	7.902	#	3	MOL
186	3	6.531	46.793999	8.653	#	3	MOL
187	3	6.495	43.744999	8.666	#	3	MOL
188	4	6.956	47.131001	12.888	#	4	MOL
189	4	6.087	45.277	8.263	#	4	MOL
190	4	7.9	47.165001	7.889	#	4	MOL
191	4	7.883	43.367001	7.918	#	4	MOL
192	4	9.632	49.291	8.116	#	4	MOL
193	4	9.579	41.257999	8.13	#	4	MOL
194	4	10.392	46.867001	9.08	#	4	MOL
195	4	10.345	43.646999	9.087	#	4	MOL
196	2	11.906	49.348	11.467	#	2	MOL
197	3	11.86	41.172001	11.452	#	3	MOL
198	3	6.23	50.200001	10.701	#	3	MOL
199	3	6.176	40.32	10.688	#	3	MOL
200	4	14.448	49.862999	6.466	#	4	MOL
201	4	6.674	51.716999	11.09	#	4	MOL
202	4	4.861	49.828999	11.465	#	4	MOL
203	4	4.788	40.698002	11.436	#	4	MOL
204	4	11.772	47.702999	11.238	#	4	MOL
205	4	11.735	42.806999	11.224	#	4	MOL
206	4	11.012	50.126999	10.274	#	4	MOL
207	4	10.969	40.418999	10.267	#	4	MOL
208	1	4.9	45.287998	11.996	#	1	MOL
209	2	7.539	42.882999	11.467	#	2	MOL
210	3	7.583	47.636002	11.452	#	3	MOL
211	3	10.506	43.736	10.701	#	3	MOL
212	3	10.543	46.784	10.688	#	3	MOL
213	4	10.081	43.397999	6.466	#	4	MOL
214	4	10.95	45.252998	11.09	#	4	MOL
215	4	9.137	43.363998	11.465	#	4	MOL
216	4	9.155	47.162998	11.436	#	4	MOL
217	4	7.405	41.238998	11.238	#	4	MOL
218	4	7.459	49.271	11.224	#	4	MOL
219	4	6.645	43.662998	10.274	#	4	MOL
220	4	6.693	46.882999	10.267	#	4	MOL
221	4	10.454	51.741001	8.263	#	4	MOL
222	1	9.267	51.751999	11.996	#	1	MOL
223	5	5.788	52.384998	11.046	#	5	MOL
224	5	11.013	52.453999	8.906	#	5	MOL
225	5	1.858	38.798	5.464	#	5	MOL
226	5	3.808	38.780998	1.59	#	5	MOL
227	5	10.501	38.798	5.464	#	5	MOL
228	5	12.451	38.780998	1.59	#	5	MOL
229	5	-1.316	38.807999	11.915	#	5	MOL
230	5	0.633	38.791	8.042	#	5	MOL
231	5	7.327	38.807999	11.915	#	5	MOL
232	5	9.276	38.791	8.042	#	5	MOL
233	4	2.75	61.844002	9.629	#	4	TIP3
234	5	2.11	61.290001	9.998	#	5	TIP3
235	5	2.164	62.244999	8.962	#	5	TIP3
236	4	10.674	61.909	4.986	#	4	TIP3
237	5	10.998	61.870998	5.932	#	5	TIP3
238	5	9.748	62.27	5.075	#	5	TIP3
239	4	1.661	59.681	1.943	#	4	TIP3
240	5	1.943	58.738998	1.981	#	5	TIP3
241	5	0.778	59.598999	1.483	#	5	TIP3
242	4	10.426	60.604	2.404	#	4	TIP3
243	5	10.761	61.401001	1.994	#	5	TIP3
244	5	10.248	60.889	3.308	#	5	TIP3
245	4	10.926	58.365002	1.018	#	4	TIP3
246	5	11.138	57.769001	1.754	#	5	TIP3
247	5	10.657	59.212002	1.493	#	5	TIP3
248	4	8.892	65.976997	5.321	#	4	TIP3
249	5	8.119	65.477997	5.443	#	5	TIP3
250	5	9.342	65.556999	4.536	#	5	TIP3
251	4	9.935	65.875999	10.191	#	4	TIP3
252	5	9.709	65.098	9.634	#	5	TIP3
253	5	9.472	65.765999	11.018	#	5	TIP3
254	4	13.891	54.918999	2.992	#	4	TIP3
255	5	14.198	55.681	3.422	#	5	TIP3
256	5	13.212	54.577	3.578	#	5	TIP3
257	4	8.823	63.581001	8.827	#	4	TIP3
258	5	8.183	63.752998	8.148	#	5	TIP3
259	5	8.389	63.061001	9.534	#	5	TIP3
260	4	10.282	53.639999	2.053	#	4	TIP3
261	5	10.367	53.959	3.016	#	5	TIP3
262	5	9.743	54.323002	1.667	#	5	TIP3
263	4	4.618	61.125	7.777	#	4	TIP3
264	5	5.405	60.918999	8.314	#	5	TIP3
265	5	4.002	61.458	8.422	#	5	TIP3
266	4	3.403	57.687	9.815	#	4	TIP3
267	5	3.109	58.271999	9.097	#	5	TIP3
268	5	3.817	56.973	9.327	#	5	TIP3
269	4	5.458	66.097	4.589	#	4	TIP3
270	5	5.673	66.018997	3.612	#	5	TIP3
271	5	4.899	66.893997	4.657	#	5	TIP3
272	4	5.16	66.744003	7.954	#	4	TIP3
273	5	6.048	66.421997	8.207	#	5	TIP3
274	5	5.008	67.492996	8.528	#	5	TIP3
275	4	2.344	63.570999	2.624	#	4	TIP3
276	5	2.122	63.752998	3.553	#	5	TIP3
277	5	2.947	62.791	2.617	#	5	TIP3
278	4	2.71	59.185001	7.54	#	4	TIP3
279	5	2.467	59.236	6.561	#	5	TIP3
280	5	3.41	59.855	7.58	#	5	TIP3
281	4	0.747	57.469002	10.579	#	4	TIP3
282	5	0.426	56.568001	10.339	#	5	TIP3
283	5	1.505	57.584999	9.99	#	5	TIP3
284	4	4.028	60.699001	12.776	#	4	TIP3
285	5	4.577	60.193001	12.138	#	5	TIP3
286	5	3.171	60.32	12.544	#	5	TIP3
287	4	12.493	62.451	2.215	#	4	TIP3
288	5	12.908	62.84	2.987	#	5	TIP3
289	5	12.982	61.640999	2.039	#	5	TIP3
290	4	11.177	62.610001	7.928	#	4	TIP3
291	5	10.443	63.172001	8.053	#	5	TIP3
292	5	10.866	61.787998	8.298	#	5	TIP3
293	4	13.134	57.535	6.559	#	4	TIP3
294	5	12.434	56.931999	6.938	#	5	TIP3
295	5	13.959	57.161999	6.965	#	5	TIP3
296	4	7.929	62.601002	4.322	#	4	TIP3
297	5	7.364	63.34	3.912	#	5	TIP3
298	5	7.318	62.011002	4.82	#	5	TIP3
299	4	3.32	54.438999	3.693	#	4	TIP3
300	5	3.018	54.263	2.795	#	5	TIP3
301	5	4.218	54.737	3.533	#	5	TIP3
302	4	4.539	55.605	8.295	#	4	TIP3
303	5	5.46	55.702	8.123	#	5	TIP3
304	5	4.434	54.616001	8.363	#	5	TIP3
305	4	12.793	66.363998	12.168	#	4	TIP3
306	5	12.787	66.547997	11.223	#	5	TIP3
307	5	11.995	66.793999	12.399	#	5	TIP3
308	4	6.667	60.547001	9.646	#	4	TIP3
309	5	6.103	59.974998	10.296	#	5	TIP3
310	5	7.558	60.292	10.046	#	5	TIP3
311	4	4.654	58.716999	5.023	#	4	TIP3
312	5	5.059	58.125999	4.395	#	5	TIP3
313	5	5.409	58.785	5.634	#	5	TIP3
314	4	3.686	61.353001	3.401	#	4	TIP3
315	5	4.494	60.93	3.084	#	5	TIP3
316	5	3.041	60.727001	3.197	#	5	TIP3
317	4	10.03	64.441002	3.434	#	4	TIP3
318	5	9.274	63.827	3.422	#	5	TIP3
319	5	10.533	64.362	2.661	#	5	TIP3
320	4	10.55	62.543999	11.315	#	4	TIP3
321	5	10.055	63.342999	11.396	#	5	TIP3
322	5	11.46	62.846001	11.337	#	5	TIP3
323	4	13.068	55.914001	10.149	#	4	TIP3
324	5	12.803	55.473	9.295	#	5	TIP3
325	5	14.01	55.848999	10.112	#	5	TIP3
326	4	5.45	62.067001	5.337	#	4	TIP3
327	5	4.722	61.84	4.711	#	5	TIP3
328	5	4.939	61.77	6.117	#	5	TIP3
329	4	6.857	64.138	6.829	#	4	TIP3
330	5	6.107	64.75	6.8	#	5	TIP3
331	5	6.48	63.387001	6.353	#	5	TIP3
332	4	12.113	53.921001	4.942	#	4	TIP3
333	5	12.819	53.634998	5.562	#	5	TIP3
334	5	11.814	54.896	5.223	#	5	TIP3
335	4	2.421	56.775002	5.058	#	4	TIP3
336	5	2.684	55.933998	4.652	#	5	TIP3
337	5	3.219	57.34	5.048	#	5	TIP3
338	4	5.141	54.611	0.499	#	4	TIP3
339	5	4.697	54.110001	1.234	#	5	TIP3
340	5	6.031	54.301998	0.586	#	5	TIP3
341	4	2.509	56.505001	12.91	#	4	TIP3
342	5	2.114	57.138	12.315	#	5	TIP3
343	5	2.715	55.712002	12.383	#	5	TIP3
344	4	5.461	59.754002	1.943	#	4	TIP3
345	5	6.412	59.626999	2.018	#	5	TIP3
346	5	5.209	58.956001	1.434	#	5	TIP3
347	4	11.78	66.509003	0.983	#	4	TIP3
348	5	12.311	66.421997	1.794	#	5	TIP3
349	5	12.379	66.816002	0.3	#	5	TIP3
350	4	13.41	66.795998	3.206	#	4	TIP3
351	5	12.86	66.342003	3.952	#	5	TIP3
352	5	14.378	66.624001	3.486	#	5	TIP3
353	4	7.314	53.228001	9.152	#	4	TIP3
354	5	7.447	53.195999	8.157	#	5	TIP3
355	5	8.219	53.335999	9.426	#	5	TIP3
356	4	12.44	65.406998	5.37	#	4	TIP3
357	5	11.652	64.887001	5.105	#	5	TIP3
358	5	12.893	64.866997	5.977	#	5	TIP3
359	4	6.968	64.628998	2.353	#	4	TIP3
360	5	6.575	63.896	1.807	#	5	TIP3
361	5	7.083	65.290001	1.59	#	5	TIP3
362	4	13.533	63.549999	7.16	#	4	TIP3
363	5	12.608	63.308998	7.49	#	5	TIP3
364	5	14.008	63.939999	7.925	#	5	TIP3
365	4	10.963	54.737	11.79	#	4	TIP3
366	5	10.319	55.240002	11.334	#	5	TIP3
367	5	11.709	55.167	11.21	#	5	TIP3
368	4	14.776	57.938999	12.443	#	4	TIP3
369	5	14.636	58.952	12.252	#	5	TIP3
370	5	13.865	57.712002	12.604	#	5	TIP3
371	4	7.529	57.507999	1.396	#	4	TIP3
372	5	8.313	57.582001	0.857	#	5	TIP3
373	5	6.783	57.511002	0.768	#	5	TIP3
374	4	11.2	57.151001	3.471	#	4	TIP3
375	5	12.053	57.360001	3.928	#	5	TIP3
376	5	10.572	57.425999	4.138	#	5	TIP3
377	4	13.867	57.624001	3.954	#	4	TIP3
378	5	14.067	57.640999	4.904	#	5	TIP3
379	5	14.122	58.493999	3.648	#	5	TIP3
380	4	3.174	64.158997	5.954	#	4	TIP3
381	5	3.904	64.072998	5.352	#	5	TIP3
382	5	3.204	65.103996	6.129	#	5	TIP3
383	4	14.269	63.000999	4.369	#	4	TIP3
384	5	14.973	63.528	4.752	#	5	TIP3
385	5	13.69	62.859001	5.092	#	5	TIP3
386	4	12.273	58.424	10.404	#	4	TIP3
387	5	12.384	57.472	10.21	#	5	TIP3
388	5	13.153	58.714001	10.501	#	5	TIP3
389	4	3.117	64.819	10.07	#	4	TIP3
390	5	3.49	65.496002	9.523	#	5	TIP3
391	5	3.937	64.583	10.539	#	5	TIP3
392	4	10.05	58.605	5.758	#	4	TIP3
393	5	10.155	59.554001	5.556	#	5	TIP3
394	5	10.797	58.389	6.309	#	5	TIP3
395	4	7.881	56.518002	5.7	#	4	TIP3
396	5	8.55	57.224998	5.812	#	5	TIP3
397	5	7.07	56.834	6.169	#	5	TIP3
398	4	8.559	56.514999	11.535	#	4	TIP3
399	5	8.435	57.298	12.155	#	5	TIP3
400	5	7.955	55.898998	11.952	#	5	TIP3
401	4	13.039	63.511002	11.777	#	4	TIP3
402	5	13.825	63.589001	11.282	#	5	TIP3
403	5	12.883	64.473	11.916	#	5	TIP3
404	4	13.87	60.473999	12.187	#	4	TIP3
405	5	13.209	61.073002	12.633	#	5	TIP3
406	5	14.457	61.028999	11.659	#	5	TIP3
407	4	9.016	57.085999	8.814	#	4	TIP3
408	5	9.377	58.000999	8.813	#	5	TIP3
409	5	8.726	56.741001	9.661	#	5	TIP3
410	4	6.439	58.144001	7.455	#	4	TIP3
411	5	7.31	57.835999	7.837	#	5	TIP3
412	5	6.121	58.819	8.116	#	5	TIP3
413	4	11.316	55.272999	7.956	#	4	TIP3
414	5	11.391	54.358002	8.151	#	5	TIP3
415	5	10.423	55.479	8.181	#	5	TIP3
416	4	10.407	59.648998	8.888	#	4	TIP3
417	5	9.81	60.215	9.386	#	5	TIP3
418	5	11.077	59.417	9.547	#	5	TIP3
419	4	14.036	60.73	6.644	#	4	TIP3
420	5	14.358	60.138	7.346	#	5	TIP3
421	5	13.886	61.589001	7.123	#	5	TIP3
422	4	8.9	60.310001	11.29	#	4	TIP3
423	5	8.739	59.706001	12.078	#	5	TIP3
424	5	9.555	61.002998	11.531	#	5	TIP3
425	4	3.08	53.949001	11.788	#	4	TIP3
426	5	3.69	53.5	11.172	#	5	TIP3
427	5	2.196	53.556	11.641	#	5	TIP3
428	4	6.255	62.801998	0.364	#	4	TIP3
429	5	6.954	62.120998	0.671	#	5	TIP3
430	5	5.459	62.264	0.196	#	5	TIP3
431	4	6.14	56.668999	3.704	#	4	TIP3
432	5	6.732	56.837002	2.949	#	5	TIP3
433	5	6.807	56.408001	4.378	#	5	TIP3
434	4	5.15	64.684998	11.994	#	4	TIP3
435	5	5.312	65.640999	12.02	#	5	TIP3
436	5	5.614	64.404999	12.778	#	5	TIP3
437	4	2.179	66.463997	7.177	#	4	TIP3
438	5	2.719	67.060997	7.737	#	5	TIP3
439	5	1.64	66.021004	7.843	#	5	TIP3
440	4	0.688	55.780998	7.114	#	4	TIP3
441	5	1.488	56.189999	6.703	#	5	TIP3
442	5	0.053	56.429001	6.93	#	5	TIP3
443	4	0.449	60.366001	9.14	#	4	TIP3
444	5	0.202	59.479	9.095	#	5	TIP3
445	5	0.796	60.563	8.256	#	5	TIP3
446	4	0.913	65.32	0.937	#	4	TIP3
447	5	0.623	64.699997	0.268	#	5	TIP3
448	5	1.29	64.783997	1.628	#	5	TIP3
449	4	2.278	56.922001	1.2	#	4	TIP3
450	5	2.701	56.391998	0.56	#	5	TIP3
451	5	1.556	56.405998	1.415	#	5	TIP3
452	4	3.438	61.098999	0.316	#	4	TIP3
453	5	2.547	60.847	0.577	#	5	TIP3
454	5	3.889	60.775002	1.093	#	5	TIP3
455	4	1.562	59.535999	12.239	#	4	TIP3
456	5	0.96	60.25	12.049	#	5	TIP3
457	5	1.197	58.827	11.553	#	5	TIP3
458	4	1.314	62.384998	7.173	#	4	TIP3
459	5	1.333	61.706001	6.444	#	5	TIP3
460	5	2.056	62.952999	6.98	#	5	TIP3
461	4	7.572	53.419998	3.478	#	4	TIP3
462	5	7.636	53.339001	2.503	#	5	TIP3
463	5	6.628	53.234001	3.53	#	5	TIP3
464	4	1.133	60.080002	5.078	#	4	TIP3
465	5	1.201	60.102001	4.137	#	5	TIP3
466	5	0.358	59.549	5.302	#	5	TIP3
467	4	5.279	58.755001	11.457	#	4	TIP3
468	5	4.504	58.333	10.967	#	5	TIP3
469	5	5.564	57.986	12.019	#	5	TIP3
470	4	0.675	64.573997	10.952	#	4	TIP3
471	5	1.597	64.545998	10.574	#	5	TIP3
472	5	0.265	65.150002	10.339	#	5	TIP3
473	4	8.578	53.832001	6.351	#	4	TIP3
474	5	7.928	53.529999	5.693	#	5	TIP3
475	5	8.563	54.800999	6.335	#	5	TIP3
