LAMMPS data file. CGCMM style. atom_style full generated by VMD/TopoTools v1.7 on Wed Feb 12 15:06:46 +0100 2025
 469 atoms
 5 atom types
 -7.237500 7.142500  xlo xhi
 -9.495496 5.535496  ylo yhi
 -23.897666 56.144666  zlo zhi
 3.792263 -45.791217 -47.469978 xy xz yz 

 Masses

1 39.0983 # K
2 26.981538 # Al
3 28.0855 # Si
4 15.9994 # O
5 2 # H

 Atoms # full

1	1	-3.796	-10.323	17.448	#	1	MOL
2	4	-7.669	-10.03	16.945	#	4	MOL
3	1	-3.543	6.362	14.582	#	1	MOL
4	1	-5.44	-1.153	14.582	#	1	MOL
5	2	-1.645	1.553	18.056	#	2	MOL
6	2	-3.797	2.002	13.973	#	2	MOL
7	3	-1.65	-5.453	13.841	#	3	MOL
8	3	0.247	2.062	13.841	#	3	MOL
9	3	0.174	5.056	13.821	#	3	MOL
10	3	-1.723	-2.459	13.821	#	3	MOL
11	3	-3.696	3.406	16.629	#	3	MOL
12	3	-1.746	0.149	15.4	#	3	MOL
13	4	-7.254	1.965	18.386	#	4	MOL
14	4	1.812	1.59	13.643	#	4	MOL
15	4	0.33	6.069	15.086	#	4	MOL
16	4	-1.567	-1.446	15.086	#	4	MOL
17	4	1.464	5.19	12.864	#	4	MOL
18	4	-4.987	-5.196	12.495	#	4	MOL
19	4	-0.433	-2.325	12.864	#	4	MOL
20	4	-3.091	2.319	12.495	#	4	MOL
21	4	-4.981	2.615	17.224001	#	4	MOL
22	4	-0.462	0.94	14.806	#	4	MOL
23	4	-1.794	0.251	17.027	#	4	MOL
24	4	-3.649	3.303	15.003	#	4	MOL
25	4	-1.797	-3.938	14.493	#	4	MOL
26	4	0.1	3.577	14.493	#	4	MOL
27	4	-2.32	2.902	17.312	#	4	MOL
28	4	-3.122	0.653	14.718	#	4	MOL
29	4	-2.32	-5.424	12.32	#	4	MOL
30	4	-1.203	5.419	13.039	#	4	MOL
31	4	-0.424	2.091	12.32	#	4	MOL
32	4	-3.1	-2.096	13.039	#	4	MOL
33	1	-5.715	-6.762	24.118	#	1	MOL
34	2	-9.51	-9.468	20.643999	#	2	MOL
35	2	-7.358	-9.918	24.728001	#	2	MOL
36	3	-9.505	-2.463	24.860001	#	3	MOL
37	3	-11.402	-9.978	24.860001	#	3	MOL
38	3	-11.329	-12.972	24.879999	#	3	MOL
39	3	-9.433	-5.457	24.879999	#	3	MOL
40	3	-7.459	-11.322	22.072001	#	3	MOL
41	3	-9.409	-8.064	23.299999	#	3	MOL
42	4	-3.901	-9.88	20.315001	#	4	MOL
43	4	-12.967	-9.506	25.056999	#	4	MOL
44	4	-9.588	-6.47	23.615	#	4	MOL
45	4	-6.168	-2.72	26.205999	#	4	MOL
46	4	-12.619	-13.106	25.836	#	4	MOL
47	4	-8.065	-10.235	26.205999	#	4	MOL
48	4	-10.723	-5.591	25.836	#	4	MOL
49	4	-6.175	-10.53	21.476999	#	4	MOL
50	4	-10.693	-8.855	23.893999	#	4	MOL
51	4	-9.361	-8.167	21.674	#	4	MOL
52	4	-7.506	-11.219	23.697001	#	4	MOL
53	4	-9.358	-3.977	24.207001	#	4	MOL
54	4	-11.255	-11.492	24.207001	#	4	MOL
55	4	-8.835	-10.817	21.388	#	4	MOL
56	4	-8.033	-8.568	23.983	#	4	MOL
57	4	-9.952	-13.335	25.662001	#	4	MOL
58	4	-8.835	-2.491	26.381001	#	4	MOL
59	4	-8.056	-5.82	25.662001	#	4	MOL
60	4	-10.732	-10.006	26.381001	#	4	MOL
61	1	-7.612	-14.277	24.118	#	1	MOL
62	4	-11.485	-13.985	23.615	#	4	MOL
63	1	-7.359	2.407	21.253	#	1	MOL
64	1	-1.9	-2.807	17.448	#	1	MOL
65	1	-9.256	-5.108	21.253	#	1	MOL
66	2	-5.461	-2.402	24.728001	#	2	MOL
67	2	-5.694	-5.513	13.973	#	2	MOL
68	2	-3.542	-5.963	18.056999	#	2	MOL
69	2	-7.613	-1.953	20.643999	#	2	MOL
70	3	-5.466	-9.408	20.511	#	3	MOL
71	3	-5.69	1.492	18.188999	#	3	MOL
72	3	-3.569	-1.893	20.511	#	3	MOL
73	3	-7.586	-6.022	18.188	#	3	MOL
74	3	-3.642	1.101	20.490999	#	3	MOL
75	3	-7.514	-9.017	18.209	#	3	MOL
76	3	-5.538	-6.414	20.490999	#	3	MOL
77	3	-5.616	-1.501	18.208	#	3	MOL
78	3	-3.643	-7.366	15.4	#	3	MOL
79	3	-7.512	-0.549	23.299	#	3	MOL
80	3	-5.562	-3.807	22.072001	#	3	MOL
81	3	-5.593	-4.109	16.629	#	3	MOL
82	4	-11.07	-1.991	25.056999	#	4	MOL
83	4	-0.085	-5.925	13.643	#	4	MOL
84	4	-9.151	-5.551	18.386	#	4	MOL
85	4	-2.005	-2.365	20.315001	#	4	MOL
86	4	-3.486	2.114	21.756001	#	4	MOL
87	4	-5.383	-5.401	21.756001	#	4	MOL
88	4	-5.773	-2.515	16.945	#	4	MOL
89	4	-2.352	1.235	19.535	#	4	MOL
90	4	-8.803	-9.151	19.166	#	4	MOL
91	4	-4.249	-6.28	19.535	#	4	MOL
92	4	-6.907	-1.636	19.166	#	4	MOL
93	4	-2.359	-6.575	14.806	#	4	MOL
94	4	-8.796	-1.34	23.893999	#	4	MOL
95	4	-4.278	-3.015	21.476999	#	4	MOL
96	4	-6.877	-4.9	17.224001	#	4	MOL
97	4	-5.61	-3.703	23.697001	#	4	MOL
98	4	-5.546	-4.212	15.003	#	4	MOL
99	4	-3.691	-7.264	17.027	#	4	MOL
100	4	-7.465	-0.652	21.674	#	4	MOL
101	4	-5.613	-7.893	21.164	#	4	MOL
102	4	-5.543	-0.022	17.537001	#	4	MOL
103	4	-3.716	-0.378	21.164	#	4	MOL
104	4	-7.439	-7.537	17.537001	#	4	MOL
105	4	-6.136	-1.053	23.983	#	4	MOL
106	4	-5.019	-6.862	14.718	#	4	MOL
107	4	-4.217	-4.613	17.313	#	4	MOL
108	4	-6.938	-3.302	21.388	#	4	MOL
109	4	-6.136	-9.379	18.990999	#	4	MOL
110	4	-5.019	1.464	19.709999	#	4	MOL
111	4	-4.239	-1.864	18.990999	#	4	MOL
112	4	-6.916	-6.051	19.709999	#	4	MOL
113	5	-5.172	-2.971	26.625999	#	5	MOL
114	5	-12.29	-13.181	26.893999	#	5	MOL
115	5	-7.069	-10.486	26.625999	#	5	MOL
116	5	-10.393	-5.666	26.893999	#	5	MOL
117	5	-10.064	-13.095	26.739	#	5	MOL
118	5	-9.576	-2.119	27.118999	#	5	MOL
119	5	-8.168	-5.58	26.739	#	5	MOL
120	5	-11.473	-9.634	27.118999	#	5	MOL
121	1	3.394	-10.323	17.448	#	1	MOL
122	4	-0.479	-10.03	16.945	#	4	MOL
123	1	3.647	6.362	14.582	#	1	MOL
124	1	1.75	-1.153	14.582	#	1	MOL
125	2	5.545	1.553	18.056	#	2	MOL
126	2	3.393	2.002	13.973	#	2	MOL
127	3	5.54	-5.453	13.841	#	3	MOL
128	3	7.437	2.062	13.841	#	3	MOL
129	3	7.364	5.056	13.821	#	3	MOL
130	3	5.467	-2.459	13.821	#	3	MOL
131	3	3.494	3.406	16.629	#	3	MOL
132	3	5.444	0.149	15.4	#	3	MOL
133	4	-0.064	1.965	18.386	#	4	MOL
134	4	9.002	1.59	13.643	#	4	MOL
135	4	7.52	6.069	15.086	#	4	MOL
136	4	5.623	-1.446	15.086	#	4	MOL
137	4	8.654	5.19	12.864	#	4	MOL
138	4	2.203	-5.196	12.495	#	4	MOL
139	4	6.757	-2.325	12.864	#	4	MOL
140	4	4.099	2.319	12.495	#	4	MOL
141	4	2.209	2.615	17.224001	#	4	MOL
142	4	6.728	0.94	14.806	#	4	MOL
143	4	5.396	0.251	17.027	#	4	MOL
144	4	3.541	3.303	15.003	#	4	MOL
145	4	5.393	-3.938	14.493	#	4	MOL
146	4	7.29	3.577	14.493	#	4	MOL
147	4	4.87	2.902	17.312	#	4	MOL
148	4	4.068	0.653	14.718	#	4	MOL
149	4	4.87	-5.424	12.32	#	4	MOL
150	4	5.987	5.419	13.039	#	4	MOL
151	4	6.766	2.091	12.32	#	4	MOL
152	4	4.09	-2.096	13.039	#	4	MOL
153	1	1.475	-6.762	24.118	#	1	MOL
154	2	-2.32	-9.468	20.643999	#	2	MOL
155	2	-0.168	-9.918	24.728001	#	2	MOL
156	3	-2.315	-2.463	24.860001	#	3	MOL
157	3	-4.212	-9.978	24.860001	#	3	MOL
158	3	-4.139	-12.972	24.879999	#	3	MOL
159	3	-2.243	-5.457	24.879999	#	3	MOL
160	3	-0.269	-11.322	22.072001	#	3	MOL
161	3	-2.219	-8.064	23.299999	#	3	MOL
162	4	3.289	-9.88	20.315001	#	4	MOL
163	4	-5.777	-9.506	25.056999	#	4	MOL
164	4	-2.398	-6.47	23.615	#	4	MOL
165	4	1.022	-2.72	26.205999	#	4	MOL
166	4	-5.429	-13.106	25.836	#	4	MOL
167	4	-0.875	-10.235	26.205999	#	4	MOL
168	4	-3.533	-5.591	25.836	#	4	MOL
169	4	1.015	-10.53	21.476999	#	4	MOL
170	4	-3.503	-8.855	23.893999	#	4	MOL
171	4	-2.171	-8.167	21.674	#	4	MOL
172	4	-0.316	-11.219	23.697001	#	4	MOL
173	4	-2.168	-3.977	24.207001	#	4	MOL
174	4	-4.065	-11.492	24.207001	#	4	MOL
175	4	-1.645	-10.817	21.388	#	4	MOL
176	4	-0.843	-8.568	23.983	#	4	MOL
177	4	-2.762	-13.335	25.662001	#	4	MOL
178	4	-1.645	-2.491	26.381001	#	4	MOL
179	4	-0.866	-5.82	25.662001	#	4	MOL
180	4	-3.542	-10.006	26.381001	#	4	MOL
181	1	-0.422	-14.277	24.118	#	1	MOL
182	4	-4.295	-13.985	23.615	#	4	MOL
183	1	-0.169	2.407	21.253	#	1	MOL
184	1	5.29	-2.807	17.448	#	1	MOL
185	1	-2.066	-5.108	21.253	#	1	MOL
186	2	1.729	-2.402	24.728001	#	2	MOL
187	2	1.496	-5.513	13.973	#	2	MOL
188	2	3.648	-5.963	18.056999	#	2	MOL
189	2	-0.423	-1.953	20.643999	#	2	MOL
190	3	1.724	-9.408	20.511	#	3	MOL
191	3	1.5	1.492	18.188999	#	3	MOL
192	3	3.621	-1.893	20.511	#	3	MOL
193	3	-0.396	-6.022	18.188	#	3	MOL
194	3	3.548	1.101	20.490999	#	3	MOL
195	3	-0.324	-9.017	18.209	#	3	MOL
196	3	1.652	-6.414	20.490999	#	3	MOL
197	3	1.574	-1.501	18.208	#	3	MOL
198	3	3.547	-7.366	15.4	#	3	MOL
199	3	-0.322	-0.549	23.299	#	3	MOL
200	3	1.628	-3.807	22.072001	#	3	MOL
201	3	1.597	-4.109	16.629	#	3	MOL
202	4	-3.88	-1.991	25.056999	#	4	MOL
203	4	7.105	-5.925	13.643	#	4	MOL
204	4	-1.961	-5.551	18.386	#	4	MOL
205	4	5.185	-2.365	20.315001	#	4	MOL
206	4	3.704	2.114	21.756001	#	4	MOL
207	4	1.807	-5.401	21.756001	#	4	MOL
208	4	1.417	-2.515	16.945	#	4	MOL
209	4	4.838	1.235	19.535	#	4	MOL
210	4	-1.613	-9.151	19.166	#	4	MOL
211	4	2.941	-6.28	19.535	#	4	MOL
212	4	0.283	-1.636	19.166	#	4	MOL
213	4	4.831	-6.575	14.806	#	4	MOL
214	4	-1.606	-1.34	23.893999	#	4	MOL
215	4	2.912	-3.015	21.476999	#	4	MOL
216	4	0.313	-4.9	17.224001	#	4	MOL
217	4	1.58	-3.703	23.697001	#	4	MOL
218	4	1.644	-4.212	15.003	#	4	MOL
219	4	3.499	-7.264	17.027	#	4	MOL
220	4	-0.275	-0.652	21.674	#	4	MOL
221	4	1.577	-7.893	21.164	#	4	MOL
222	4	1.647	-0.022	17.537001	#	4	MOL
223	4	3.474	-0.378	21.164	#	4	MOL
224	4	-0.249	-7.537	17.537001	#	4	MOL
225	4	1.054	-1.053	23.983	#	4	MOL
226	4	2.171	-6.862	14.718	#	4	MOL
227	4	2.973	-4.613	17.313	#	4	MOL
228	4	0.252	-3.302	21.388	#	4	MOL
229	4	1.054	-9.379	18.990999	#	4	MOL
230	4	2.171	1.464	19.709999	#	4	MOL
231	4	2.951	-1.864	18.990999	#	4	MOL
232	4	0.274	-6.051	19.709999	#	4	MOL
233	5	2.018	-2.971	26.625999	#	5	MOL
234	5	-5.1	-13.181	26.893999	#	5	MOL
235	5	0.121	-10.486	26.625999	#	5	MOL
236	5	-3.203	-5.666	26.893999	#	5	MOL
237	5	-2.874	-13.095	26.739	#	5	MOL
238	5	-2.386	-2.119	27.118999	#	5	MOL
239	5	-0.978	-5.58	26.739	#	5	MOL
240	5	-4.283	-9.634	27.118999	#	5	MOL
241	5	2.386	5.177	13.483	#	5	MOL
242	5	-3.991	-5.447	12.915	#	5	MOL
243	5	0.489	-2.338	13.483	#	5	MOL
244	5	-2.095	2.068	12.915	#	5	MOL
245	5	-3.36	-5.04	12.381	#	5	MOL
246	5	-1.943	5.824	13.761	#	5	MOL
247	5	-1.463	2.476	12.381	#	5	MOL
248	5	-3.84	-1.692	13.761	#	5	MOL
249	5	9.576	5.177	13.483	#	5	MOL
250	5	3.199	-5.447	12.915	#	5	MOL
251	5	7.679	-2.338	13.483	#	5	MOL
252	5	5.095	2.068	12.915	#	5	MOL
253	5	3.83	-5.04	12.381	#	5	MOL
254	5	5.247	5.824	13.761	#	5	MOL
255	5	5.727	2.476	12.381	#	5	MOL
256	5	3.35	-1.692	13.761	#	5	MOL
257	4	2.75	8.844	39.629002	#	4	TIP3
258	5	2.11	8.29	39.998001	#	5	TIP3
259	5	2.164	9.245	38.962002	#	5	TIP3
260	4	10.674	8.909	34.986	#	4	TIP3
261	5	10.998	8.871	35.931999	#	5	TIP3
262	5	9.748	9.27	35.075001	#	5	TIP3
263	4	0.002	5.667	44.591	#	4	TIP3
264	5	0.483	5.99	43.830002	#	5	TIP3
265	5	0.608	5.781	45.347	#	5	TIP3
266	4	9.882	9.156	44.916	#	4	TIP3
267	5	9.574	9.753	45.597	#	5	TIP3
268	5	10.021	8.264	45.289001	#	5	TIP3
269	4	1.661	6.681	31.943001	#	4	TIP3
270	5	1.943	5.739	31.981001	#	5	TIP3
271	5	0.778	6.599	31.483	#	5	TIP3
272	4	10.426	7.604	32.403999	#	4	TIP3
273	5	10.761	8.401	31.993999	#	5	TIP3
274	5	10.248	7.889	33.307999	#	5	TIP3
275	4	10.926	5.365	31.018	#	4	TIP3
276	5	11.138	4.769	31.754	#	5	TIP3
277	5	10.657	6.212	31.493	#	5	TIP3
278	4	8.892	12.977	35.320999	#	4	TIP3
279	5	8.119	12.478	35.443001	#	5	TIP3
280	5	9.342	12.557	34.535999	#	5	TIP3
281	4	9.935	12.876	40.191002	#	4	TIP3
282	5	9.709	12.098	39.633999	#	5	TIP3
283	5	9.472	12.766	41.018002	#	5	TIP3
284	4	8.823	10.581	38.827	#	4	TIP3
285	5	8.183	10.753	38.147999	#	5	TIP3
286	5	8.389	10.061	39.534	#	5	TIP3
287	4	9.078	11.967	42.734001	#	4	TIP3
288	5	8.228	11.561	42.993	#	5	TIP3
289	5	9.512	12.194	43.560001	#	5	TIP3
290	4	10.282	0.64	32.053001	#	4	TIP3
291	5	10.367	0.959	33.015999	#	5	TIP3
292	5	9.743	1.323	31.667	#	5	TIP3
293	4	4.618	8.125	37.777	#	4	TIP3
294	5	5.405	7.919	38.313999	#	5	TIP3
295	5	4.002	8.458	38.422001	#	5	TIP3
296	4	3.403	4.687	39.814999	#	4	TIP3
297	5	3.109	5.272	39.097	#	5	TIP3
298	5	3.817	3.973	39.327	#	5	TIP3
299	4	3.119	10.325	43.158001	#	4	TIP3
300	5	3.598	10.9	42.512001	#	5	TIP3
301	5	3.44	9.43	42.962002	#	5	TIP3
302	4	2.344	10.571	32.624001	#	4	TIP3
303	5	2.122	10.753	33.553001	#	5	TIP3
304	5	2.947	9.791	32.617001	#	5	TIP3
305	4	2.71	6.185	37.540001	#	4	TIP3
306	5	2.467	6.236	36.561001	#	5	TIP3
307	5	3.41	6.855	37.580002	#	5	TIP3
308	4	0.747	4.469	40.578999	#	4	TIP3
309	5	0.426	3.568	40.339001	#	5	TIP3
310	5	1.505	4.585	39.990002	#	5	TIP3
311	4	7.027	2.224	43.410999	#	4	TIP3
312	5	6.185	2.801	43.535	#	5	TIP3
313	5	6.692	1.403	43.742001	#	5	TIP3
314	4	4.028	7.699	42.776001	#	4	TIP3
315	5	4.577	7.193	42.138	#	5	TIP3
316	5	3.171	7.32	42.543999	#	5	TIP3
317	4	11.177	9.61	37.928001	#	4	TIP3
318	5	10.443	10.172	38.053001	#	5	TIP3
319	5	10.866	8.788	38.298	#	5	TIP3
320	4	7.929	9.601	34.321999	#	4	TIP3
321	5	7.364	10.34	33.911999	#	5	TIP3
322	5	7.318	9.011	34.82	#	5	TIP3
323	4	3.32	1.439	33.693001	#	4	TIP3
324	5	3.018	1.263	32.794998	#	5	TIP3
325	5	4.218	1.737	33.533001	#	5	TIP3
326	4	4.539	2.605	38.294998	#	4	TIP3
327	5	5.46	2.702	38.123001	#	5	TIP3
328	5	4.434	1.616	38.362999	#	5	TIP3
329	4	6.667	7.547	39.646	#	4	TIP3
330	5	6.103	6.975	40.296001	#	5	TIP3
331	5	7.558	7.292	40.046001	#	5	TIP3
332	4	4.654	5.717	35.022999	#	4	TIP3
333	5	5.059	5.126	34.395	#	5	TIP3
334	5	5.409	5.785	35.633999	#	5	TIP3
335	4	3.686	8.353	33.401001	#	4	TIP3
336	5	4.494	7.93	33.084	#	5	TIP3
337	5	3.041	7.727	33.196999	#	5	TIP3
338	4	10.03	11.441	33.433998	#	4	TIP3
339	5	9.274	10.827	33.422001	#	5	TIP3
340	5	10.533	11.362	32.660999	#	5	TIP3
341	4	10.55	9.544	41.314999	#	4	TIP3
342	5	10.055	10.343	41.396	#	5	TIP3
343	5	11.46	9.846	41.337002	#	5	TIP3
344	4	5.45	9.067	35.337002	#	4	TIP3
345	5	4.722	8.84	34.710999	#	5	TIP3
346	5	4.939	8.77	36.117001	#	5	TIP3
347	4	6.857	11.138	36.828999	#	4	TIP3
348	5	6.107	11.75	36.799999	#	5	TIP3
349	5	6.48	10.387	36.353001	#	5	TIP3
350	4	2.421	3.775	35.057999	#	4	TIP3
351	5	2.684	2.934	34.652	#	5	TIP3
352	5	3.219	4.34	35.048	#	5	TIP3
353	4	5.141	1.611	30.499001	#	4	TIP3
354	5	4.697	1.11	31.233999	#	5	TIP3
355	5	6.031	1.302	30.586	#	5	TIP3
356	4	2.509	3.505	42.91	#	4	TIP3
357	5	2.114	4.138	42.314999	#	5	TIP3
358	5	2.715	2.712	42.382999	#	5	TIP3
359	4	5.461	6.754	31.943001	#	4	TIP3
360	5	6.412	6.627	32.018002	#	5	TIP3
361	5	5.209	5.956	31.434	#	5	TIP3
362	4	7.314	0.228	39.152	#	4	TIP3
363	5	7.447	0.196	38.157001	#	5	TIP3
364	5	8.219	0.336	39.425999	#	5	TIP3
365	4	0.289	10.538	43.467999	#	4	TIP3
366	5	0.286	10.937	42.602001	#	5	TIP3
367	5	1.262	10.357	43.668999	#	5	TIP3
368	4	6.968	11.629	32.353001	#	4	TIP3
369	5	6.575	10.896	31.806999	#	5	TIP3
370	5	7.083	12.29	31.59	#	5	TIP3
371	4	10.963	1.737	41.790001	#	4	TIP3
372	5	10.319	2.24	41.334	#	5	TIP3
373	5	11.709	2.167	41.209999	#	5	TIP3
374	4	5.526	8.369	44.858002	#	4	TIP3
375	5	4.95	8.218	44.071999	#	5	TIP3
376	5	4.945	8.919	45.362999	#	5	TIP3
377	4	7.529	4.508	31.396	#	4	TIP3
378	5	8.313	4.582	30.857	#	5	TIP3
379	5	6.783	4.511	30.768	#	5	TIP3
380	4	4.884	4.081	43.713001	#	4	TIP3
381	5	4.97	4.746	44.373001	#	5	TIP3
382	5	3.932	3.975	43.592999	#	5	TIP3
383	4	3.174	11.159	35.953999	#	4	TIP3
384	5	3.904	11.073	35.352001	#	5	TIP3
385	5	3.204	12.104	36.129002	#	5	TIP3
386	4	3.117	11.819	40.07	#	4	TIP3
387	5	3.49	12.496	39.522999	#	5	TIP3
388	5	3.937	11.583	40.539001	#	5	TIP3
389	4	10.05	5.605	35.757999	#	4	TIP3
390	5	10.155	6.554	35.556	#	5	TIP3
391	5	10.797	5.389	36.308998	#	5	TIP3
392	4	7.881	3.518	35.700001	#	4	TIP3
393	5	8.55	4.225	35.812	#	5	TIP3
394	5	7.07	3.834	36.168999	#	5	TIP3
395	4	8.559	3.515	41.535	#	4	TIP3
396	5	8.435	4.298	42.154999	#	5	TIP3
397	5	7.955	2.899	41.952	#	5	TIP3
398	4	8.4	5.552	43.556999	#	4	TIP3
399	5	9.07	5.24	44.185001	#	5	TIP3
400	5	7.739	5.945	44.162998	#	5	TIP3
401	4	9.016	4.086	38.813999	#	4	TIP3
402	5	9.377	5.001	38.813	#	5	TIP3
403	5	8.726	3.741	39.660999	#	5	TIP3
404	4	6.439	5.144	37.455002	#	4	TIP3
405	5	7.31	4.836	37.837002	#	5	TIP3
406	5	6.121	5.819	38.116001	#	5	TIP3
407	4	11.316	2.273	37.956001	#	4	TIP3
408	5	11.391	1.358	38.151001	#	5	TIP3
409	5	10.423	2.479	38.181	#	5	TIP3
410	4	10.407	6.649	38.888	#	4	TIP3
411	5	9.81	7.215	39.386002	#	5	TIP3
412	5	11.077	6.417	39.547001	#	5	TIP3
413	4	8.9	7.31	41.290001	#	4	TIP3
414	5	8.739	6.706	42.077999	#	5	TIP3
415	5	9.555	8.003	41.530998	#	5	TIP3
416	4	3.08	0.949	41.787998	#	4	TIP3
417	5	3.69	0.5	41.172001	#	5	TIP3
418	5	2.196	0.556	41.640999	#	5	TIP3
419	4	6.255	9.802	30.364	#	4	TIP3
420	5	6.954	9.121	30.671	#	5	TIP3
421	5	5.459	9.264	30.195999	#	5	TIP3
422	4	6.14	3.669	33.703999	#	4	TIP3
423	5	6.732	3.837	32.949001	#	5	TIP3
424	5	6.807	3.408	34.377998	#	5	TIP3
425	4	5.15	11.685	41.993999	#	4	TIP3
426	5	5.312	12.641	42.02	#	5	TIP3
427	5	5.614	11.405	42.778	#	5	TIP3
428	4	0.688	2.781	37.113998	#	4	TIP3
429	5	1.488	3.19	36.702999	#	5	TIP3
430	5	0.053	3.429	36.93	#	5	TIP3
431	4	0.449	7.366	39.139999	#	4	TIP3
432	5	0.202	6.479	39.095001	#	5	TIP3
433	5	0.796	7.563	38.256001	#	5	TIP3
434	4	0.913	12.32	30.937	#	4	TIP3
435	5	0.623	11.7	30.268	#	5	TIP3
436	5	1.29	11.784	31.628	#	5	TIP3
437	4	3.406	0.117	44.493	#	4	TIP3
438	5	3.348	0.244	43.546001	#	5	TIP3
439	5	4.378	0.19	44.723999	#	5	TIP3
440	4	2.278	3.922	31.200001	#	4	TIP3
441	5	2.701	3.392	30.559999	#	5	TIP3
442	5	1.556	3.406	31.415001	#	5	TIP3
443	4	3.438	8.099	30.316	#	4	TIP3
444	5	2.547	7.847	30.577	#	5	TIP3
445	5	3.889	7.775	31.093	#	5	TIP3
446	4	1.562	6.536	42.238998	#	4	TIP3
447	5	0.96	7.25	42.049	#	5	TIP3
448	5	1.197	5.827	41.553001	#	5	TIP3
449	4	1.314	9.385	37.173	#	4	TIP3
450	5	1.333	8.706	36.444	#	5	TIP3
451	5	2.056	9.953	36.98	#	5	TIP3
452	4	7.572	0.42	33.478001	#	4	TIP3
453	5	7.636	0.339	32.502998	#	5	TIP3
454	5	6.628	0.234	33.529999	#	5	TIP3
455	4	1.133	7.08	35.077999	#	4	TIP3
456	5	1.201	7.102	34.137001	#	5	TIP3
457	5	0.358	6.549	35.301998	#	5	TIP3
458	4	5.279	5.755	41.457001	#	4	TIP3
459	5	4.504	5.333	40.966999	#	5	TIP3
460	5	5.564	4.986	42.019001	#	5	TIP3
461	4	0.675	11.574	40.952	#	4	TIP3
462	5	1.597	11.546	40.574001	#	5	TIP3
463	5	0.265	12.15	40.339001	#	5	TIP3
464	4	8.578	0.832	36.351002	#	4	TIP3
465	5	7.928	0.53	35.693001	#	5	TIP3
466	5	8.563	1.801	36.334999	#	5	TIP3
467	4	7.287	10.172	43.814999	#	4	TIP3
468	5	6.631	9.473	44.077	#	5	TIP3
469	5	8.119	9.669	43.852001	#	5	TIP3

