LAMMPS data file. CGCMM style. atom_style full generated by VMD/TopoTools v1.7 on Wed Feb 12 15:43:15 +0100 2025
 460 atoms
 5 atom types
 -6.176500 8.203500  xlo xhi
 -8.367997 6.662995  ylo yhi
 -25.908166 54.134166  zlo zhi
 3.792263 -45.791217 -47.469978 xy xz yz

 Masses

1 39.0983 # K
2 26.981538 # Al
3 28.0855 # Si
4 15.9994 # O
5 2 # H

 Atoms # full

1	2	-12.238	-12.296	25.413	#	2	MOL
2	4	-6.629	-12.708	25.083	#	4	MOL
3	4	-8.903	-13.358	26.246	#	4	MOL
4	4	-12.089	-10.994	26.441999	#	4	MOL
5	4	-11.563	-13.645	26.157	#	4	MOL
6	1	-10.087	-0.421	26.021999	#	1	MOL
7	1	-4.627	-5.635	22.216	#	1	MOL
8	1	-11.984	-7.936	26.021999	#	1	MOL
9	2	-8.422	-8.34	18.742001	#	2	MOL
10	2	-6.27	-8.79	22.826	#	2	MOL
11	2	-10.341	-4.781	25.413	#	2	MOL
12	3	-8.194	-12.236	25.281	#	3	MOL
13	3	-8.417	-1.335	22.958	#	3	MOL
14	3	-6.297	-4.72	25.281	#	3	MOL
15	3	-10.314	-8.85	22.958	#	3	MOL
16	3	-6.37	-1.727	25.261	#	3	MOL
17	3	-10.241	-11.844	22.978001	#	3	MOL
18	3	-8.267	-9.242	25.261	#	3	MOL
19	3	-8.345	-4.329	22.978001	#	3	MOL
20	3	-6.371	-10.194	20.17	#	3	MOL
21	3	-8.321	-6.937	21.398001	#	3	MOL
22	4	-2.813	-8.753	18.413	#	4	MOL
23	4	-11.879	-8.378	23.155001	#	4	MOL
24	4	-4.732	-5.192	25.083	#	4	MOL
25	4	-6.214	-0.713	26.525	#	4	MOL
26	4	-8.111	-8.228	26.525	#	4	MOL
27	4	-8.5	-5.342	21.712999	#	4	MOL
28	4	-5.08	-1.592	24.304001	#	4	MOL
29	4	-11.531	-11.978	23.934	#	4	MOL
30	4	-6.977	-9.107	24.304001	#	4	MOL
31	4	-9.635	-4.463	23.934	#	4	MOL
32	4	-5.087	-9.403	19.575001	#	4	MOL
33	4	-7.006	-5.843	26.246	#	4	MOL
34	4	-9.605	-7.728	21.992001	#	4	MOL
35	4	-8.273	-7.039	19.771999	#	4	MOL
36	4	-6.418	-10.091	21.795	#	4	MOL
37	4	-10.192	-3.479	26.441999	#	4	MOL
38	4	-8.341	-10.721	25.933001	#	4	MOL
39	4	-8.27	-2.85	22.305	#	4	MOL
40	4	-6.444	-3.206	25.933001	#	4	MOL
41	4	-10.167	-10.365	22.305	#	4	MOL
42	4	-7.747	-9.69	19.486	#	4	MOL
43	4	-6.945	-7.441	22.080999	#	4	MOL
44	4	-9.666	-6.13	26.157	#	4	MOL
45	4	-8.864	-12.207	23.76	#	4	MOL
46	4	-7.747	-1.364	24.479	#	4	MOL
47	4	-6.968	-4.692	23.76	#	4	MOL
48	4	-9.644	-8.879	24.479	#	4	MOL
49	1	-6.524	-13.15	22.216	#	1	MOL
50	4	-10.397	-12.857	21.712999	#	4	MOL
51	1	-6.271	3.535	19.351	#	1	MOL
52	1	-0.812	-1.68	15.546	#	1	MOL
53	1	-8.168	-3.981	19.351	#	1	MOL
54	2	-4.373	-1.275	22.826	#	2	MOL
55	2	-2.454	-4.835	16.155001	#	2	MOL
56	2	-6.525	-0.825	18.742001	#	2	MOL
57	3	-4.378	-8.28	18.608999	#	3	MOL
58	3	-4.602	2.62	16.287001	#	3	MOL
59	3	-2.481	-0.765	18.608999	#	3	MOL
60	3	-6.498	-4.895	16.287001	#	3	MOL
61	3	-2.554	2.229	18.589001	#	3	MOL
62	3	-6.426	-7.889	16.306999	#	3	MOL
63	3	-4.45	-5.286	18.589001	#	3	MOL
64	3	-4.529	-0.374	16.306999	#	3	MOL
65	3	-6.425	0.579	21.398001	#	3	MOL
66	3	-4.474	-2.679	20.17	#	3	MOL
67	4	-9.982	-0.863	23.155001	#	4	MOL
68	4	-8.063	-4.423	16.483999	#	4	MOL
69	4	-0.917	-1.237	18.413	#	4	MOL
70	4	-2.398	3.242	19.854	#	4	MOL
71	4	-4.295	-4.273	19.854	#	4	MOL
72	4	-4.685	-1.387	15.043	#	4	MOL
73	4	-1.264	2.363	17.632999	#	4	MOL
74	4	-7.715	-8.023	17.264	#	4	MOL
75	4	-3.161	-5.152	17.632999	#	4	MOL
76	4	-5.819	-0.508	17.264	#	4	MOL
77	4	-7.708	-0.213	21.992001	#	4	MOL
78	4	-3.19	-1.887	19.575001	#	4	MOL
79	4	-5.789	-3.773	15.322	#	4	MOL
80	4	-4.522	-2.576	21.795	#	4	MOL
81	4	-2.603	-6.136	15.125	#	4	MOL
82	4	-6.377	0.476	19.771999	#	4	MOL
83	4	-4.525	-6.766	19.261999	#	4	MOL
84	4	-4.455	1.105	15.635	#	4	MOL
85	4	-2.628	0.75	19.261999	#	4	MOL
86	4	-6.351	-6.41	15.635	#	4	MOL
87	4	-5.048	0.074	22.080999	#	4	MOL
88	4	-3.129	-3.486	15.411	#	4	MOL
89	4	-5.85	-2.174	19.486	#	4	MOL
90	4	-5.048	-8.252	17.089001	#	4	MOL
91	4	-3.931	2.591	17.808001	#	4	MOL
92	4	-3.151	-0.737	17.089001	#	4	MOL
93	4	-5.828	-4.924	17.808001	#	4	MOL
94	1	-2.708	-9.195	15.546	#	1	MOL
95	4	-6.581	-8.902	15.043	#	4	MOL
96	2	-0.557	2.68	16.155001	#	2	MOL
97	4	-6.166	3.092	16.483999	#	4	MOL
98	4	-3.893	3.742	15.322	#	4	MOL
99	4	-0.706	1.379	15.125	#	4	MOL
100	4	-1.233	4.029	15.411	#	4	MOL
101	2	-5.048	-12.296	25.413	#	2	MOL
102	4	0.561	-12.708	25.083	#	4	MOL
103	4	-1.713	-13.358	26.246	#	4	MOL
104	4	-4.899	-10.994	26.441999	#	4	MOL
105	4	-4.373	-13.645	26.157	#	4	MOL
106	1	-2.897	-0.421	26.021999	#	1	MOL
107	1	2.563	-5.635	22.216	#	1	MOL
108	1	-4.794	-7.936	26.021999	#	1	MOL
109	2	-1.232	-8.34	18.742001	#	2	MOL
110	2	0.92	-8.79	22.826	#	2	MOL
111	2	-3.151	-4.781	25.413	#	2	MOL
112	3	-1.004	-12.236	25.281	#	3	MOL
113	3	-1.227	-1.335	22.958	#	3	MOL
114	3	0.893	-4.72	25.281	#	3	MOL
115	3	-3.124	-8.85	22.958	#	3	MOL
116	3	0.82	-1.727	25.261	#	3	MOL
117	3	-3.051	-11.844	22.978001	#	3	MOL
118	3	-1.077	-9.242	25.261	#	3	MOL
119	3	-1.155	-4.329	22.978001	#	3	MOL
120	3	0.819	-10.194	20.17	#	3	MOL
121	3	-1.131	-6.937	21.398001	#	3	MOL
122	4	4.377	-8.753	18.413	#	4	MOL
123	4	-4.689	-8.378	23.155001	#	4	MOL
124	4	2.458	-5.192	25.083	#	4	MOL
125	4	0.976	-0.713	26.525	#	4	MOL
126	4	-0.921	-8.228	26.525	#	4	MOL
127	4	-1.31	-5.342	21.712999	#	4	MOL
128	4	2.11	-1.592	24.304001	#	4	MOL
129	4	-4.341	-11.978	23.934	#	4	MOL
130	4	0.213	-9.107	24.304001	#	4	MOL
131	4	-2.445	-4.463	23.934	#	4	MOL
132	4	2.103	-9.403	19.575001	#	4	MOL
133	4	0.184	-5.843	26.246	#	4	MOL
134	4	-2.415	-7.728	21.992001	#	4	MOL
135	4	-1.083	-7.039	19.771999	#	4	MOL
136	4	0.772	-10.091	21.795	#	4	MOL
137	4	-3.002	-3.479	26.441999	#	4	MOL
138	4	-1.151	-10.721	25.933001	#	4	MOL
139	4	-1.08	-2.85	22.305	#	4	MOL
140	4	0.746	-3.206	25.933001	#	4	MOL
141	4	-2.977	-10.365	22.305	#	4	MOL
142	4	-0.557	-9.69	19.486	#	4	MOL
143	4	0.245	-7.441	22.080999	#	4	MOL
144	4	-2.476	-6.13	26.157	#	4	MOL
145	4	-1.674	-12.207	23.76	#	4	MOL
146	4	-0.557	-1.364	24.479	#	4	MOL
147	4	0.222	-4.692	23.76	#	4	MOL
148	4	-2.454	-8.879	24.479	#	4	MOL
149	1	0.666	-13.15	22.216	#	1	MOL
150	4	-3.207	-12.857	21.712999	#	4	MOL
151	1	0.919	3.535	19.351	#	1	MOL
152	1	6.378	-1.68	15.546	#	1	MOL
153	1	-0.978	-3.981	19.351	#	1	MOL
154	2	2.817	-1.275	22.826	#	2	MOL
155	2	4.736	-4.835	16.155001	#	2	MOL
156	2	0.665	-0.825	18.742001	#	2	MOL
157	3	2.812	-8.28	18.608999	#	3	MOL
158	3	2.588	2.62	16.287001	#	3	MOL
159	3	4.709	-0.765	18.608999	#	3	MOL
160	3	0.692	-4.895	16.287001	#	3	MOL
161	3	4.636	2.229	18.589001	#	3	MOL
162	3	0.764	-7.889	16.306999	#	3	MOL
163	3	2.74	-5.286	18.589001	#	3	MOL
164	3	2.661	-0.374	16.306999	#	3	MOL
165	3	0.765	0.579	21.398001	#	3	MOL
166	3	2.716	-2.679	20.17	#	3	MOL
167	4	-2.792	-0.863	23.155001	#	4	MOL
168	4	-0.873	-4.423	16.483999	#	4	MOL
169	4	6.273	-1.237	18.413	#	4	MOL
170	4	4.792	3.242	19.854	#	4	MOL
171	4	2.895	-4.273	19.854	#	4	MOL
172	4	2.505	-1.387	15.043	#	4	MOL
173	4	5.926	2.363	17.632999	#	4	MOL
174	4	-0.525	-8.023	17.264	#	4	MOL
175	4	4.029	-5.152	17.632999	#	4	MOL
176	4	1.371	-0.508	17.264	#	4	MOL
177	4	-0.518	-0.213	21.992001	#	4	MOL
178	4	4	-1.887	19.575001	#	4	MOL
179	4	1.401	-3.773	15.322	#	4	MOL
180	4	2.668	-2.576	21.795	#	4	MOL
181	4	4.587	-6.136	15.125	#	4	MOL
182	4	0.813	0.476	19.771999	#	4	MOL
183	4	2.665	-6.766	19.261999	#	4	MOL
184	4	2.735	1.105	15.635	#	4	MOL
185	4	4.562	0.75	19.261999	#	4	MOL
186	4	0.839	-6.41	15.635	#	4	MOL
187	4	2.142	0.074	22.080999	#	4	MOL
188	4	4.061	-3.486	15.411	#	4	MOL
189	4	1.34	-2.174	19.486	#	4	MOL
190	4	2.142	-8.252	17.089001	#	4	MOL
191	4	3.259	2.591	17.808001	#	4	MOL
192	4	4.039	-0.737	17.089001	#	4	MOL
193	4	1.362	-4.924	17.808001	#	4	MOL
194	1	4.482	-9.195	15.546	#	1	MOL
195	4	0.609	-8.902	15.043	#	4	MOL
196	2	6.633	2.68	16.155001	#	2	MOL
197	4	1.024	3.092	16.483999	#	4	MOL
198	4	3.297	3.742	15.322	#	4	MOL
199	4	6.484	1.379	15.125	#	4	MOL
200	4	5.957	4.029	15.411	#	4	MOL
201	5	-8.13	-13.841	26.879	#	5	MOL
202	5	-11.093	-11.246	26.863001	#	5	MOL
203	5	-10.567	-13.896	26.577	#	5	MOL
204	5	-7.171	-0.174	26.687	#	5	MOL
205	5	-9.067	-7.689	26.687	#	5	MOL
206	5	-6.234	-6.326	26.879	#	5	MOL
207	5	-9.197	-3.731	26.863001	#	5	MOL
208	5	-8.67	-6.381	26.577	#	5	MOL
209	5	-0.94	-13.841	26.879	#	5	MOL
210	5	-3.903	-11.246	26.863001	#	5	MOL
211	5	-3.377	-13.896	26.577	#	5	MOL
212	5	0.019	-0.174	26.687	#	5	MOL
213	5	-1.877	-7.689	26.687	#	5	MOL
214	5	0.956	-6.326	26.879	#	5	MOL
215	5	-2.007	-3.731	26.863001	#	5	MOL
216	5	-1.48	-6.381	26.577	#	5	MOL
217	5	-5.712	-1.309	14.63	#	5	MOL
218	5	-4.697	-3.751	15.521	#	5	MOL
219	5	-1.607	-6.387	15.546	#	5	MOL
220	5	-2.133	-3.737	15.831	#	5	MOL
221	5	-7.609	-8.824	14.63	#	5	MOL
222	5	-2.801	3.765	15.521	#	5	MOL
223	5	0.29	1.128	15.546	#	5	MOL
224	5	-0.237	3.778	15.831	#	5	MOL
225	5	1.478	-1.309	14.63	#	5	MOL
226	5	2.493	-3.751	15.521	#	5	MOL
227	5	5.583	-6.387	15.546	#	5	MOL
228	5	5.057	-3.737	15.831	#	5	MOL
229	5	-0.419	-8.824	14.63	#	5	MOL
230	5	4.389	3.765	15.521	#	5	MOL
231	5	7.48	1.128	15.546	#	5	MOL
232	5	6.953	3.778	15.831	#	5	MOL
233	4	3.668	10.082	44.903999	#	4	TIP3
234	5	3.224	10.451	44.101002	#	5	TIP3
235	5	3.092	10.379	45.626999	#	5	TIP3
236	4	2.75	8.844	38.629002	#	4	TIP3
237	5	2.11	8.29	38.998001	#	5	TIP3
238	5	2.164	9.245	37.962002	#	5	TIP3
239	4	10.674	8.909	33.986	#	4	TIP3
240	5	10.998	8.871	34.931999	#	5	TIP3
241	5	9.748	9.27	34.075001	#	5	TIP3
242	4	0.002	5.667	43.591	#	4	TIP3
243	5	0.483	5.99	42.830002	#	5	TIP3
244	5	0.608	5.781	44.347	#	5	TIP3
245	4	9.882	9.156	43.916	#	4	TIP3
246	5	9.574	9.753	44.597	#	5	TIP3
247	5	10.021	8.264	44.289001	#	5	TIP3
248	4	1.661	6.681	30.943001	#	4	TIP3
249	5	1.943	5.739	30.981001	#	5	TIP3
250	5	0.778	6.599	30.483	#	5	TIP3
251	4	10.426	7.604	31.403999	#	4	TIP3
252	5	10.761	8.401	30.993999	#	5	TIP3
253	5	10.248	7.889	32.307999	#	5	TIP3
254	4	10.926	5.365	30.018	#	4	TIP3
255	5	11.138	4.769	30.754	#	5	TIP3
256	5	10.657	6.212	30.493	#	5	TIP3
257	4	8.892	12.977	34.320999	#	4	TIP3
258	5	8.119	12.478	34.443001	#	5	TIP3
259	5	9.342	12.557	33.535999	#	5	TIP3
260	4	9.935	12.876	39.191002	#	4	TIP3
261	5	9.709	12.098	38.633999	#	5	TIP3
262	5	9.472	12.766	40.018002	#	5	TIP3
263	4	8.823	10.581	37.827	#	4	TIP3
264	5	8.183	10.753	37.147999	#	5	TIP3
265	5	8.389	10.061	38.534	#	5	TIP3
266	4	9.078	11.967	41.734001	#	4	TIP3
267	5	8.228	11.561	41.993	#	5	TIP3
268	5	9.512	12.194	42.560001	#	5	TIP3
269	4	10.282	0.64	31.052999	#	4	TIP3
270	5	10.367	0.959	32.015999	#	5	TIP3
271	5	9.743	1.323	30.667	#	5	TIP3
272	4	4.618	8.125	36.777	#	4	TIP3
273	5	5.405	7.919	37.313999	#	5	TIP3
274	5	4.002	8.458	37.422001	#	5	TIP3
275	4	3.403	4.687	38.814999	#	4	TIP3
276	5	3.109	5.272	38.097	#	5	TIP3
277	5	3.817	3.973	38.327	#	5	TIP3
278	4	3.119	10.325	42.158001	#	4	TIP3
279	5	3.598	10.9	41.512001	#	5	TIP3
280	5	3.44	9.43	41.962002	#	5	TIP3
281	4	2.344	10.571	31.624001	#	4	TIP3
282	5	2.122	10.753	32.553001	#	5	TIP3
283	5	2.947	9.791	31.617001	#	5	TIP3
284	4	2.71	6.185	36.540001	#	4	TIP3
285	5	2.467	6.236	35.561001	#	5	TIP3
286	5	3.41	6.855	36.580002	#	5	TIP3
287	4	0.747	4.469	39.578999	#	4	TIP3
288	5	0.426	3.568	39.339001	#	5	TIP3
289	5	1.505	4.585	38.990002	#	5	TIP3
290	4	10.704	6.721	44.882999	#	4	TIP3
291	5	10.901	6.912	45.835999	#	5	TIP3
292	5	10.127	5.972	44.998001	#	5	TIP3
293	4	7.027	2.224	42.410999	#	4	TIP3
294	5	6.185	2.801	42.535	#	5	TIP3
295	5	6.692	1.403	42.742001	#	5	TIP3
296	4	4.028	7.699	41.776001	#	4	TIP3
297	5	4.577	7.193	41.138	#	5	TIP3
298	5	3.171	7.32	41.543999	#	5	TIP3
299	4	11.177	9.61	36.928001	#	4	TIP3
300	5	10.443	10.172	37.053001	#	5	TIP3
301	5	10.866	8.788	37.298	#	5	TIP3
302	4	1.838	3.206	44.397999	#	4	TIP3
303	5	2.201	4.081	44.544998	#	5	TIP3
304	5	2.117	2.999	43.422001	#	5	TIP3
305	4	7.929	9.601	33.321999	#	4	TIP3
306	5	7.364	10.34	32.911999	#	5	TIP3
307	5	7.318	9.011	33.82	#	5	TIP3
308	4	3.32	1.439	32.693001	#	4	TIP3
309	5	3.018	1.263	31.795	#	5	TIP3
310	5	4.218	1.737	32.533001	#	5	TIP3
311	4	4.539	2.605	37.294998	#	4	TIP3
312	5	5.46	2.702	37.123001	#	5	TIP3
313	5	4.434	1.616	37.362999	#	5	TIP3
314	4	6.667	7.547	38.646	#	4	TIP3
315	5	6.103	6.975	39.296001	#	5	TIP3
316	5	7.558	7.292	39.046001	#	5	TIP3
317	4	4.654	5.717	34.022999	#	4	TIP3
318	5	5.059	5.126	33.395	#	5	TIP3
319	5	5.409	5.785	34.633999	#	5	TIP3
320	4	3.686	8.353	32.401001	#	4	TIP3
321	5	4.494	7.93	32.084	#	5	TIP3
322	5	3.041	7.727	32.196999	#	5	TIP3
323	4	10.03	11.441	32.433998	#	4	TIP3
324	5	9.274	10.827	32.422001	#	5	TIP3
325	5	10.533	11.362	31.660999	#	5	TIP3
326	4	10.55	9.544	40.314999	#	4	TIP3
327	5	10.055	10.343	40.396	#	5	TIP3
328	5	11.46	9.846	40.337002	#	5	TIP3
329	4	5.45	9.067	34.337002	#	4	TIP3
330	5	4.722	8.84	33.710999	#	5	TIP3
331	5	4.939	8.77	35.117001	#	5	TIP3
332	4	6.857	11.138	35.828999	#	4	TIP3
333	5	6.107	11.75	35.799999	#	5	TIP3
334	5	6.48	10.387	35.353001	#	5	TIP3
335	4	9.197	4.375	44.964001	#	4	TIP3
336	5	9.163	3.59	44.387001	#	5	TIP3
337	5	8.516	4.167	45.604	#	5	TIP3
338	4	2.421	3.775	34.057999	#	4	TIP3
339	5	2.684	2.934	33.652	#	5	TIP3
340	5	3.219	4.34	34.048	#	5	TIP3
341	4	5.141	1.611	29.499001	#	4	TIP3
342	5	4.697	1.11	30.233999	#	5	TIP3
343	5	6.031	1.302	29.586	#	5	TIP3
344	4	2.509	3.505	41.91	#	4	TIP3
345	5	2.114	4.138	41.314999	#	5	TIP3
346	5	2.715	2.712	41.382999	#	5	TIP3
347	4	5.461	6.754	30.943001	#	4	TIP3
348	5	6.412	6.627	31.018	#	5	TIP3
349	5	5.209	5.956	30.434	#	5	TIP3
350	4	7.314	0.228	38.152	#	4	TIP3
351	5	7.447	0.196	37.157001	#	5	TIP3
352	5	8.219	0.336	38.425999	#	5	TIP3
353	4	0.289	10.538	42.467999	#	4	TIP3
354	5	0.286	10.937	41.602001	#	5	TIP3
355	5	1.262	10.357	42.668999	#	5	TIP3
356	4	6.968	11.629	31.353001	#	4	TIP3
357	5	6.575	10.896	30.806999	#	5	TIP3
358	5	7.083	12.29	30.59	#	5	TIP3
359	4	10.963	1.737	40.790001	#	4	TIP3
360	5	10.319	2.24	40.334	#	5	TIP3
361	5	11.709	2.167	40.209999	#	5	TIP3
362	4	5.526	8.369	43.858002	#	4	TIP3
363	5	4.95	8.218	43.071999	#	5	TIP3
364	5	4.945	8.919	44.362999	#	5	TIP3
365	4	7.529	4.508	30.396	#	4	TIP3
366	5	8.313	4.582	29.857	#	5	TIP3
367	5	6.783	4.511	29.768	#	5	TIP3
368	4	4.884	4.081	42.713001	#	4	TIP3
369	5	4.97	4.746	43.373001	#	5	TIP3
370	5	3.932	3.975	42.592999	#	5	TIP3
371	4	3.174	11.159	34.953999	#	4	TIP3
372	5	3.904	11.073	34.352001	#	5	TIP3
373	5	3.204	12.104	35.129002	#	5	TIP3
374	4	3.117	11.819	39.07	#	4	TIP3
375	5	3.49	12.496	38.522999	#	5	TIP3
376	5	3.937	11.583	39.539001	#	5	TIP3
377	4	10.05	5.605	34.757999	#	4	TIP3
378	5	10.155	6.554	34.556	#	5	TIP3
379	5	10.797	5.389	35.308998	#	5	TIP3
380	4	7.881	3.518	34.700001	#	4	TIP3
381	5	8.55	4.225	34.812	#	5	TIP3
382	5	7.07	3.834	35.168999	#	5	TIP3
383	4	8.559	3.515	40.535	#	4	TIP3
384	5	8.435	4.298	41.154999	#	5	TIP3
385	5	7.955	2.899	40.952	#	5	TIP3
386	4	8.4	5.552	42.556999	#	4	TIP3
387	5	9.07	5.24	43.185001	#	5	TIP3
388	5	7.739	5.945	43.162998	#	5	TIP3
389	4	9.016	4.086	37.813999	#	4	TIP3
390	5	9.377	5.001	37.813	#	5	TIP3
391	5	8.726	3.741	38.660999	#	5	TIP3
392	4	6.439	5.144	36.455002	#	4	TIP3
393	5	7.31	4.836	36.837002	#	5	TIP3
394	5	6.121	5.819	37.116001	#	5	TIP3
395	4	9.131	1.075	44.841	#	4	TIP3
396	5	9.948	1.463	44.411999	#	5	TIP3
397	5	9.113	0.161	44.464001	#	5	TIP3
398	4	11.316	2.273	36.956001	#	4	TIP3
399	5	11.391	1.358	37.151001	#	5	TIP3
400	5	10.423	2.479	37.181	#	5	TIP3
401	4	10.407	6.649	37.888	#	4	TIP3
402	5	9.81	7.215	38.386002	#	5	TIP3
403	5	11.077	6.417	38.547001	#	5	TIP3
404	4	8.9	7.31	40.290001	#	4	TIP3
405	5	8.739	6.706	41.077999	#	5	TIP3
406	5	9.555	8.003	40.530998	#	5	TIP3
407	4	3.08	0.949	40.787998	#	4	TIP3
408	5	3.69	0.5	40.172001	#	5	TIP3
409	5	2.196	0.556	40.640999	#	5	TIP3
410	4	6.255	9.802	29.364	#	4	TIP3
411	5	6.954	9.121	29.671	#	5	TIP3
412	5	5.459	9.264	29.195999	#	5	TIP3
413	4	6.14	3.669	32.703999	#	4	TIP3
414	5	6.732	3.837	31.948999	#	5	TIP3
415	5	6.807	3.408	33.377998	#	5	TIP3
416	4	5.15	11.685	40.993999	#	4	TIP3
417	5	5.312	12.641	41.02	#	5	TIP3
418	5	5.614	11.405	41.778	#	5	TIP3
419	4	0.688	2.781	36.113998	#	4	TIP3
420	5	1.488	3.19	35.702999	#	5	TIP3
421	5	0.053	3.429	35.93	#	5	TIP3
422	4	0.449	7.366	38.139999	#	4	TIP3
423	5	0.202	6.479	38.095001	#	5	TIP3
424	5	0.796	7.563	37.256001	#	5	TIP3
425	4	0.913	12.32	29.937	#	4	TIP3
426	5	0.623	11.7	29.268	#	5	TIP3
427	5	1.29	11.784	30.628	#	5	TIP3
428	4	3.406	0.117	43.493	#	4	TIP3
429	5	3.348	0.244	42.546001	#	5	TIP3
430	5	4.378	0.19	43.723999	#	5	TIP3
431	4	2.278	3.922	30.200001	#	4	TIP3
432	5	2.701	3.392	29.559999	#	5	TIP3
433	5	1.556	3.406	30.415001	#	5	TIP3
434	4	3.438	8.099	29.316	#	4	TIP3
435	5	2.547	7.847	29.577	#	5	TIP3
436	5	3.889	7.775	30.093	#	5	TIP3
437	4	1.562	6.536	41.238998	#	4	TIP3
438	5	0.96	7.25	41.049	#	5	TIP3
439	5	1.197	5.827	40.553001	#	5	TIP3
440	4	1.314	9.385	36.173	#	4	TIP3
441	5	1.333	8.706	35.444	#	5	TIP3
442	5	2.056	9.953	35.98	#	5	TIP3
443	4	7.572	0.42	32.478001	#	4	TIP3
444	5	7.636	0.339	31.503	#	5	TIP3
445	5	6.628	0.234	32.529999	#	5	TIP3
446	4	1.133	7.08	34.077999	#	4	TIP3
447	5	1.201	7.102	33.137001	#	5	TIP3
448	5	0.358	6.549	34.301998	#	5	TIP3
449	4	5.279	5.755	40.457001	#	4	TIP3
450	5	4.504	5.333	39.966999	#	5	TIP3
451	5	5.564	4.986	41.019001	#	5	TIP3
452	4	0.675	11.574	39.952	#	4	TIP3
453	5	1.597	11.546	39.574001	#	5	TIP3
454	5	0.265	12.15	39.339001	#	5	TIP3
455	4	8.578	0.832	35.351002	#	4	TIP3
456	5	7.928	0.53	34.693001	#	5	TIP3
457	5	8.563	1.801	35.334999	#	5	TIP3
458	4	7.287	10.172	42.814999	#	4	TIP3
459	5	6.631	9.473	43.077	#	5	TIP3
460	5	8.119	9.669	42.852001	#	5	TIP3

