LAMMPS data file. CGCMM style. atom_style full generated by VMD/TopoTools v1.7 on Wed Feb 12 15:38:12 +0100 2025
 493 atoms
 5 atom types
 -4.567000 9.813000  xlo xhi
 -6.808497 8.222496  ylo yhi
 -28.251166 51.791166  zlo zhi
 3.792263 -45.791217 -47.469978 xy xz yz

 Masses

1 39.0983 # K
2 26.981538 # Al
3 28.0855 # Si
4 15.9994 # O
5 2 # H

 Atoms # full

1	1	0.704	-5.658	9.581	#	1	MOL
2	2	0.958	-1.298	10.19	#	2	MOL
3	3	-0.965	-4.743	12.644	#	3	MOL
4	3	-3.086	-1.358	10.322	#	3	MOL
5	3	-3.013	-4.352	10.342	#	3	MOL
6	3	-1.038	-1.749	12.624	#	3	MOL
7	3	0.858	-2.702	7.533	#	3	MOL
8	3	-1.093	0.556	8.762	#	3	MOL
9	4	-4.65	-0.886	10.519	#	4	MOL
10	4	-3.169	-5.366	9.077	#	4	MOL
11	4	-4.303	-4.487	11.299	#	4	MOL
12	4	0.252	-1.615	11.668	#	4	MOL
13	4	2.141	-1.911	6.939	#	4	MOL
14	4	-2.377	-0.236	9.357	#	4	MOL
15	4	-1.045	0.452	7.136	#	4	MOL
16	4	0.81	-2.599	9.16	#	4	MOL
17	4	-1.112	-3.229	13.297	#	4	MOL
18	4	-2.939	-2.873	9.67	#	4	MOL
19	4	-0.519	-2.198	6.85	#	4	MOL
20	4	0.283	0.051	9.446	#	4	MOL
21	4	-1.636	-4.715	11.123	#	4	MOL
22	4	-2.416	-1.387	11.843	#	4	MOL
23	2	2.855	6.217	10.19	#	2	MOL
24	3	0.804	8.071	8.762	#	3	MOL
25	3	2.754	4.813	7.533	#	3	MOL
26	4	-2.754	6.629	10.519	#	4	MOL
27	4	4.83	10.734	7.219	#	4	MOL
28	4	2.933	3.219	7.219	#	4	MOL
29	4	-0.48	7.279	9.357	#	4	MOL
30	4	4.038	5.604	6.939	#	4	MOL
31	4	2.706	4.916	9.16	#	4	MOL
32	4	0.851	7.967	7.136	#	4	MOL
33	4	2.18	7.566	9.446	#	4	MOL
34	4	1.378	5.317	6.85	#	4	MOL
35	4	-8.904	-5.76	22.417999	#	4	MOL
36	2	-8.826	-8.759	19.448	#	2	MOL
37	3	-6.774	-10.612	20.875	#	3	MOL
38	3	-8.725	-7.355	22.104	#	3	MOL
39	4	-3.217	-9.171	19.118	#	4	MOL
40	4	-10.8	-13.275	22.417999	#	4	MOL
41	4	-5.49	-9.821	20.280001	#	4	MOL
42	4	-10.009	-8.146	22.698	#	4	MOL
43	4	-8.677	-7.458	20.476999	#	4	MOL
44	4	-6.822	-10.51	22.500999	#	4	MOL
45	4	-8.151	-10.108	20.191999	#	4	MOL
46	4	-7.349	-7.859	22.785999	#	4	MOL
47	1	-6.674	3.116	20.056	#	1	MOL
48	1	-1.215	-2.098	16.250999	#	1	MOL
49	1	-8.571	-4.399	20.056	#	1	MOL
50	2	-6.929	-1.244	19.448	#	2	MOL
51	3	-5.005	2.202	16.993	#	3	MOL
52	3	-2.885	-1.184	19.316	#	3	MOL
53	3	-2.958	1.81	19.296	#	3	MOL
54	3	-4.932	-0.792	17.013	#	3	MOL
55	3	-6.828	0.16	22.104	#	3	MOL
56	3	-4.878	-3.097	20.875	#	3	MOL
57	4	-1.32	-1.656	19.118	#	4	MOL
58	4	-2.802	2.823	20.559999	#	4	MOL
59	4	-4.699	-4.692	20.559999	#	4	MOL
60	4	-5.088	-1.805	15.748	#	4	MOL
61	4	-1.668	1.945	18.339001	#	4	MOL
62	4	-6.222	-0.926	17.969	#	4	MOL
63	4	-8.112	-0.631	22.698	#	4	MOL
64	4	-3.593	-2.306	20.280001	#	4	MOL
65	4	-4.926	-2.994	22.500999	#	4	MOL
66	4	-6.78	0.058	20.476999	#	4	MOL
67	4	-4.858	0.687	16.34	#	4	MOL
68	4	-3.032	0.331	19.968	#	4	MOL
69	4	-5.452	-0.344	22.785999	#	4	MOL
70	4	-6.254	-2.593	20.191999	#	4	MOL
71	4	-4.335	2.173	18.513	#	4	MOL
72	4	-3.555	-1.155	17.795	#	4	MOL
73	1	-3.112	-9.613	16.250999	#	1	MOL
74	2	-5.009	-4.804	12.776	#	2	MOL
75	2	-2.858	-5.253	16.860001	#	2	MOL
76	3	-4.782	-8.699	19.316	#	3	MOL
77	3	-6.902	-5.313	16.993	#	3	MOL
78	3	-6.829	-8.307	17.013	#	3	MOL
79	3	-4.854	-5.705	19.296	#	3	MOL
80	3	-2.959	-6.657	14.204	#	3	MOL
81	3	-4.909	-3.4	15.433	#	3	MOL
82	4	0.599	-5.216	12.447	#	4	MOL
83	4	-8.467	-4.841	17.190001	#	4	MOL
84	4	-6.985	-9.32	15.748	#	4	MOL
85	4	-8.119	-8.442	17.969	#	4	MOL
86	4	-3.564	-5.571	18.339001	#	4	MOL
87	4	-1.674	-5.866	13.61	#	4	MOL
88	4	-6.193	-4.191	16.027	#	4	MOL
89	4	-4.861	-3.503	13.807	#	4	MOL
90	4	-3.006	-6.554	15.83	#	4	MOL
91	4	-4.929	-7.184	19.968	#	4	MOL
92	4	-6.755	-6.828	16.34	#	4	MOL
93	4	-4.334	-6.153	13.521	#	4	MOL
94	4	-3.533	-3.904	16.115999	#	4	MOL
95	4	-5.452	-8.67	17.795	#	4	MOL
96	4	-6.231	-5.342	18.513	#	4	MOL
97	1	-2.859	7.071	13.386	#	1	MOL
98	1	2.601	1.857	9.581	#	1	MOL
99	1	-4.755	-0.444	13.386	#	1	MOL
100	2	-0.961	2.262	16.860001	#	2	MOL
101	2	-3.113	2.712	12.776	#	2	MOL
102	3	-1.189	6.157	10.322	#	3	MOL
103	3	0.931	2.772	12.644	#	3	MOL
104	3	0.859	5.766	12.624	#	3	MOL
105	3	-1.116	3.163	10.342	#	3	MOL
106	3	-3.012	4.115	15.433	#	3	MOL
107	3	-1.062	0.858	14.204	#	3	MOL
108	4	-6.57	2.674	17.190001	#	4	MOL
109	4	2.496	2.299	12.447	#	4	MOL
110	4	1.014	6.779	13.889	#	4	MOL
111	4	-0.882	-0.736	13.889	#	4	MOL
112	4	-1.272	2.15	9.077	#	4	MOL
113	4	2.149	5.9	11.668	#	4	MOL
114	4	-2.406	3.029	11.299	#	4	MOL
115	4	-4.296	3.324	16.027	#	4	MOL
116	4	0.222	1.649	13.61	#	4	MOL
117	4	-1.109	0.961	15.83	#	4	MOL
118	4	-2.964	4.013	13.807	#	4	MOL
119	4	-1.042	4.642	9.67	#	4	MOL
120	4	0.784	4.286	13.297	#	4	MOL
121	4	-1.636	3.611	16.115999	#	4	MOL
122	4	-2.438	1.362	13.521	#	4	MOL
123	4	-0.519	6.128	11.843	#	4	MOL
124	4	0.261	2.8	11.123	#	4	MOL
125	5	-10.151	-12.992	23.271999	#	5	MOL
126	5	-9.889	-8.275	23.794001	#	5	MOL
127	5	-7.827	-10.162	22.820999	#	5	MOL
128	5	-7.387	-7.67	23.879999	#	5	MOL
129	5	-8.254	-5.476	23.271999	#	5	MOL
130	5	-7.993	-0.76	23.794001	#	5	MOL
131	5	-5.93	-2.647	22.820999	#	5	MOL
132	5	-5.491	-0.155	23.879999	#	5	MOL
133	5	2.847	-1.679	7.764	#	5	MOL
134	5	-2.028	0.753	6.718	#	5	MOL
135	5	-1.187	-1.778	7.631	#	5	MOL
136	5	5.561	10.296	7.93	#	5	MOL
137	5	3.664	2.781	7.93	#	5	MOL
138	5	4.744	5.837	7.764	#	5	MOL
139	5	-0.132	8.268	6.718	#	5	MOL
140	5	0.71	5.737	7.631	#	5	MOL
141	1	7.894	-5.658	9.581	#	1	MOL
142	2	8.148	-1.298	10.19	#	2	MOL
143	3	6.225	-4.743	12.644	#	3	MOL
144	3	4.104	-1.358	10.322	#	3	MOL
145	3	4.177	-4.352	10.342	#	3	MOL
146	3	6.152	-1.749	12.624	#	3	MOL
147	3	8.048	-2.702	7.533	#	3	MOL
148	3	6.097	0.556	8.762	#	3	MOL
149	4	2.54	-0.886	10.519	#	4	MOL
150	4	4.021	-5.366	9.077	#	4	MOL
151	4	2.887	-4.487	11.299	#	4	MOL
152	4	7.442	-1.615	11.668	#	4	MOL
153	4	9.331	-1.911	6.939	#	4	MOL
154	4	4.813	-0.236	9.357	#	4	MOL
155	4	6.145	0.452	7.136	#	4	MOL
156	4	8	-2.599	9.16	#	4	MOL
157	4	6.078	-3.229	13.297	#	4	MOL
158	4	4.251	-2.873	9.67	#	4	MOL
159	4	6.671	-2.198	6.85	#	4	MOL
160	4	7.473	0.051	9.446	#	4	MOL
161	4	5.554	-4.715	11.123	#	4	MOL
162	4	4.774	-1.387	11.843	#	4	MOL
163	2	10.045	6.217	10.19	#	2	MOL
164	3	7.994	8.071	8.762	#	3	MOL
165	3	9.944	4.813	7.533	#	3	MOL
166	4	4.436	6.629	10.519	#	4	MOL
167	4	12.02	10.734	7.219	#	4	MOL
168	4	10.123	3.219	7.219	#	4	MOL
169	4	6.71	7.279	9.357	#	4	MOL
170	4	11.228	5.604	6.939	#	4	MOL
171	4	9.896	4.916	9.16	#	4	MOL
172	4	8.041	7.967	7.136	#	4	MOL
173	4	9.37	7.566	9.446	#	4	MOL
174	4	8.568	5.317	6.85	#	4	MOL
175	4	-1.714	-5.76	22.417999	#	4	MOL
176	2	-1.636	-8.759	19.448	#	2	MOL
177	3	0.416	-10.612	20.875	#	3	MOL
178	3	-1.535	-7.355	22.104	#	3	MOL
179	4	3.973	-9.171	19.118	#	4	MOL
180	4	-3.61	-13.275	22.417999	#	4	MOL
181	4	1.7	-9.821	20.280001	#	4	MOL
182	4	-2.819	-8.146	22.698	#	4	MOL
183	4	-1.487	-7.458	20.476999	#	4	MOL
184	4	0.368	-10.51	22.500999	#	4	MOL
185	4	-0.961	-10.108	20.191999	#	4	MOL
186	4	-0.159	-7.859	22.785999	#	4	MOL
187	1	0.516	3.116	20.056	#	1	MOL
188	1	5.975	-2.098	16.250999	#	1	MOL
189	1	-1.381	-4.399	20.056	#	1	MOL
190	2	0.261	-1.244	19.448	#	2	MOL
191	3	2.185	2.202	16.993	#	3	MOL
192	3	4.305	-1.184	19.316	#	3	MOL
193	3	4.232	1.81	19.296	#	3	MOL
194	3	2.258	-0.792	17.013	#	3	MOL
195	3	0.362	0.16	22.104	#	3	MOL
196	3	2.312	-3.097	20.875	#	3	MOL
197	4	5.87	-1.656	19.118	#	4	MOL
198	4	4.388	2.823	20.559999	#	4	MOL
199	4	2.491	-4.692	20.559999	#	4	MOL
200	4	2.102	-1.805	15.748	#	4	MOL
201	4	5.522	1.945	18.339001	#	4	MOL
202	4	0.968	-0.926	17.969	#	4	MOL
203	4	-0.922	-0.631	22.698	#	4	MOL
204	4	3.597	-2.306	20.280001	#	4	MOL
205	4	2.264	-2.994	22.500999	#	4	MOL
206	4	0.41	0.058	20.476999	#	4	MOL
207	4	2.332	0.687	16.34	#	4	MOL
208	4	4.158	0.331	19.968	#	4	MOL
209	4	1.738	-0.344	22.785999	#	4	MOL
210	4	0.936	-2.593	20.191999	#	4	MOL
211	4	2.855	2.173	18.513	#	4	MOL
212	4	3.635	-1.155	17.795	#	4	MOL
213	1	4.078	-9.613	16.250999	#	1	MOL
214	2	2.181	-4.804	12.776	#	2	MOL
215	2	4.332	-5.253	16.860001	#	2	MOL
216	3	2.408	-8.699	19.316	#	3	MOL
217	3	0.288	-5.313	16.993	#	3	MOL
218	3	0.361	-8.307	17.013	#	3	MOL
219	3	2.336	-5.705	19.296	#	3	MOL
220	3	4.231	-6.657	14.204	#	3	MOL
221	3	2.281	-3.4	15.433	#	3	MOL
222	4	7.789	-5.216	12.447	#	4	MOL
223	4	-1.277	-4.841	17.190001	#	4	MOL
224	4	0.205	-9.32	15.748	#	4	MOL
225	4	-0.929	-8.442	17.969	#	4	MOL
226	4	3.626	-5.571	18.339001	#	4	MOL
227	4	5.516	-5.866	13.61	#	4	MOL
228	4	0.997	-4.191	16.027	#	4	MOL
229	4	2.329	-3.503	13.807	#	4	MOL
230	4	4.184	-6.554	15.83	#	4	MOL
231	4	2.261	-7.184	19.968	#	4	MOL
232	4	0.435	-6.828	16.34	#	4	MOL
233	4	2.856	-6.153	13.521	#	4	MOL
234	4	3.657	-3.904	16.115999	#	4	MOL
235	4	1.738	-8.67	17.795	#	4	MOL
236	4	0.959	-5.342	18.513	#	4	MOL
237	1	4.331	7.071	13.386	#	1	MOL
238	1	9.791	1.857	9.581	#	1	MOL
239	1	2.435	-0.444	13.386	#	1	MOL
240	2	6.229	2.262	16.860001	#	2	MOL
241	2	4.077	2.712	12.776	#	2	MOL
242	3	6.001	6.157	10.322	#	3	MOL
243	3	8.121	2.772	12.644	#	3	MOL
244	3	8.049	5.766	12.624	#	3	MOL
245	3	6.074	3.163	10.342	#	3	MOL
246	3	4.178	4.115	15.433	#	3	MOL
247	3	6.128	0.858	14.204	#	3	MOL
248	4	0.62	2.674	17.190001	#	4	MOL
249	4	9.686	2.299	12.447	#	4	MOL
250	4	8.204	6.779	13.889	#	4	MOL
251	4	6.308	-0.736	13.889	#	4	MOL
252	4	5.918	2.15	9.077	#	4	MOL
253	4	9.339	5.9	11.668	#	4	MOL
254	4	4.784	3.029	11.299	#	4	MOL
255	4	2.894	3.324	16.027	#	4	MOL
256	4	7.412	1.649	13.61	#	4	MOL
257	4	6.081	0.961	15.83	#	4	MOL
258	4	4.226	4.013	13.807	#	4	MOL
259	4	6.148	4.642	9.67	#	4	MOL
260	4	7.974	4.286	13.297	#	4	MOL
261	4	5.554	3.611	16.115999	#	4	MOL
262	4	4.752	1.362	13.521	#	4	MOL
263	4	6.671	6.128	11.843	#	4	MOL
264	4	7.451	2.8	11.123	#	4	MOL
265	5	-2.961	-12.992	23.271999	#	5	MOL
266	5	-2.699	-8.275	23.794001	#	5	MOL
267	5	-0.637	-10.162	22.820999	#	5	MOL
268	5	-0.197	-7.67	23.879999	#	5	MOL
269	5	-1.064	-5.476	23.271999	#	5	MOL
270	5	-0.803	-0.76	23.794001	#	5	MOL
271	5	1.26	-2.647	22.820999	#	5	MOL
272	5	1.699	-0.155	23.879999	#	5	MOL
273	5	10.037	-1.679	7.764	#	5	MOL
274	5	5.162	0.753	6.718	#	5	MOL
275	5	6.003	-1.778	7.631	#	5	MOL
276	5	12.751	10.296	7.93	#	5	MOL
277	5	10.854	2.781	7.93	#	5	MOL
278	5	11.934	5.837	7.764	#	5	MOL
279	5	7.058	8.268	6.718	#	5	MOL
280	5	7.9	5.737	7.631	#	5	MOL
281	4	2.75	8.844	35.629002	#	4	TIP3
282	5	2.11	8.29	35.998001	#	5	TIP3
283	5	2.164	9.245	34.962002	#	5	TIP3
284	4	10.674	8.909	30.986	#	4	TIP3
285	5	10.998	8.871	31.931999	#	5	TIP3
286	5	9.748	9.27	31.075001	#	5	TIP3
287	4	0.002	5.667	40.591	#	4	TIP3
288	5	0.483	5.99	39.830002	#	5	TIP3
289	5	0.608	5.781	41.347	#	5	TIP3
290	4	9.882	9.156	40.916	#	4	TIP3
291	5	9.574	9.753	41.597	#	5	TIP3
292	5	10.021	8.264	41.289001	#	5	TIP3
293	4	1.661	6.681	27.943001	#	4	TIP3
294	5	1.943	5.739	27.981001	#	5	TIP3
295	5	0.778	6.599	27.483	#	5	TIP3
296	4	10.426	7.604	28.403999	#	4	TIP3
297	5	10.761	8.401	27.993999	#	5	TIP3
298	5	10.248	7.889	29.308001	#	5	TIP3
299	4	10.926	5.365	27.018	#	4	TIP3
300	5	11.138	4.769	27.754	#	5	TIP3
301	5	10.657	6.212	27.493	#	5	TIP3
302	4	8.892	12.977	31.320999	#	4	TIP3
303	5	8.119	12.478	31.443001	#	5	TIP3
304	5	9.342	12.557	30.535999	#	5	TIP3
305	4	9.935	12.876	36.191002	#	4	TIP3
306	5	9.709	12.098	35.633999	#	5	TIP3
307	5	9.472	12.766	37.018002	#	5	TIP3
308	4	8.823	10.581	34.827	#	4	TIP3
309	5	8.183	10.753	34.147999	#	5	TIP3
310	5	8.389	10.061	35.534	#	5	TIP3
311	4	9.078	11.967	38.734001	#	4	TIP3
312	5	8.228	11.561	38.993	#	5	TIP3
313	5	9.512	12.194	39.560001	#	5	TIP3
314	4	10.282	0.64	28.052999	#	4	TIP3
315	5	10.367	0.959	29.016001	#	5	TIP3
316	5	9.743	1.323	27.667	#	5	TIP3
317	4	4.618	8.125	33.777	#	4	TIP3
318	5	5.405	7.919	34.313999	#	5	TIP3
319	5	4.002	8.458	34.422001	#	5	TIP3
320	4	3.403	4.687	35.814999	#	4	TIP3
321	5	3.109	5.272	35.097	#	5	TIP3
322	5	3.817	3.973	35.327	#	5	TIP3
323	4	3.119	10.325	39.158001	#	4	TIP3
324	5	3.598	10.9	38.512001	#	5	TIP3
325	5	3.44	9.43	38.962002	#	5	TIP3
326	4	2.344	10.571	28.624001	#	4	TIP3
327	5	2.122	10.753	29.552999	#	5	TIP3
328	5	2.947	9.791	28.617001	#	5	TIP3
329	4	2.71	6.185	33.540001	#	4	TIP3
330	5	2.467	6.236	32.561001	#	5	TIP3
331	5	3.41	6.855	33.580002	#	5	TIP3
332	4	0.747	4.469	36.578999	#	4	TIP3
333	5	0.426	3.568	36.339001	#	5	TIP3
334	5	1.505	4.585	35.990002	#	5	TIP3
335	4	7.027	2.224	39.410999	#	4	TIP3
336	5	6.185	2.801	39.535	#	5	TIP3
337	5	6.692	1.403	39.742001	#	5	TIP3
338	4	4.028	7.699	38.776001	#	4	TIP3
339	5	4.577	7.193	38.138	#	5	TIP3
340	5	3.171	7.32	38.543999	#	5	TIP3
341	4	11.177	9.61	33.928001	#	4	TIP3
342	5	10.443	10.172	34.053001	#	5	TIP3
343	5	10.866	8.788	34.298	#	5	TIP3
344	4	7.929	9.601	30.322001	#	4	TIP3
345	5	7.364	10.34	29.912001	#	5	TIP3
346	5	7.318	9.011	30.82	#	5	TIP3
347	4	3.32	1.439	29.693001	#	4	TIP3
348	5	3.018	1.263	28.795	#	5	TIP3
349	5	4.218	1.737	29.533001	#	5	TIP3
350	4	4.539	2.605	34.294998	#	4	TIP3
351	5	5.46	2.702	34.123001	#	5	TIP3
352	5	4.434	1.616	34.362999	#	5	TIP3
353	4	6.667	7.547	35.646	#	4	TIP3
354	5	6.103	6.975	36.296001	#	5	TIP3
355	5	7.558	7.292	36.046001	#	5	TIP3
356	4	4.654	5.717	31.023001	#	4	TIP3
357	5	5.059	5.126	30.395	#	5	TIP3
358	5	5.409	5.785	31.634001	#	5	TIP3
359	4	3.686	8.353	29.400999	#	4	TIP3
360	5	4.494	7.93	29.084	#	5	TIP3
361	5	3.041	7.727	29.197001	#	5	TIP3
362	4	10.03	11.441	29.434	#	4	TIP3
363	5	9.274	10.827	29.422001	#	5	TIP3
364	5	10.533	11.362	28.660999	#	5	TIP3
365	4	10.55	9.544	37.314999	#	4	TIP3
366	5	10.055	10.343	37.396	#	5	TIP3
367	5	11.46	9.846	37.337002	#	5	TIP3
368	4	5.45	9.067	31.337	#	4	TIP3
369	5	4.722	8.84	30.711	#	5	TIP3
370	5	4.939	8.77	32.117001	#	5	TIP3
371	4	6.857	11.138	32.828999	#	4	TIP3
372	5	6.107	11.75	32.799999	#	5	TIP3
373	5	6.48	10.387	32.353001	#	5	TIP3
374	4	2.421	3.775	31.058001	#	4	TIP3
375	5	2.684	2.934	30.652	#	5	TIP3
376	5	3.219	4.34	31.048	#	5	TIP3
377	4	5.141	1.611	26.499001	#	4	TIP3
378	5	4.697	1.11	27.233999	#	5	TIP3
379	5	6.031	1.302	26.586	#	5	TIP3
380	4	2.509	3.505	38.91	#	4	TIP3
381	5	2.114	4.138	38.314999	#	5	TIP3
382	5	2.715	2.712	38.382999	#	5	TIP3
383	4	5.461	6.754	27.943001	#	4	TIP3
384	5	6.412	6.627	28.018	#	5	TIP3
385	5	5.209	5.956	27.434	#	5	TIP3
386	4	7.314	0.228	35.152	#	4	TIP3
387	5	7.447	0.196	34.157001	#	5	TIP3
388	5	8.219	0.336	35.425999	#	5	TIP3
389	4	0.289	10.538	39.467999	#	4	TIP3
390	5	0.286	10.937	38.602001	#	5	TIP3
391	5	1.262	10.357	39.668999	#	5	TIP3
392	4	6.968	11.629	28.353001	#	4	TIP3
393	5	6.575	10.896	27.806999	#	5	TIP3
394	5	7.083	12.29	27.59	#	5	TIP3
395	4	10.963	1.737	37.790001	#	4	TIP3
396	5	10.319	2.24	37.334	#	5	TIP3
397	5	11.709	2.167	37.209999	#	5	TIP3
398	4	5.526	8.369	40.858002	#	4	TIP3
399	5	4.95	8.218	40.071999	#	5	TIP3
400	5	4.945	8.919	41.362999	#	5	TIP3
401	4	7.529	4.508	27.396	#	4	TIP3
402	5	8.313	4.582	26.857	#	5	TIP3
403	5	6.783	4.511	26.768	#	5	TIP3
404	4	4.884	4.081	39.713001	#	4	TIP3
405	5	4.97	4.746	40.373001	#	5	TIP3
406	5	3.932	3.975	39.592999	#	5	TIP3
407	4	3.174	11.159	31.954	#	4	TIP3
408	5	3.904	11.073	31.351999	#	5	TIP3
409	5	3.204	12.104	32.129002	#	5	TIP3
410	4	3.117	11.819	36.07	#	4	TIP3
411	5	3.49	12.496	35.522999	#	5	TIP3
412	5	3.937	11.583	36.539001	#	5	TIP3
413	4	10.05	5.605	31.757999	#	4	TIP3
414	5	10.155	6.554	31.556	#	5	TIP3
415	5	10.797	5.389	32.308998	#	5	TIP3
416	4	7.881	3.518	31.700001	#	4	TIP3
417	5	8.55	4.225	31.812	#	5	TIP3
418	5	7.07	3.834	32.168999	#	5	TIP3
419	4	8.559	3.515	37.535	#	4	TIP3
420	5	8.435	4.298	38.154999	#	5	TIP3
421	5	7.955	2.899	37.952	#	5	TIP3
422	4	8.4	5.552	39.556999	#	4	TIP3
423	5	9.07	5.24	40.185001	#	5	TIP3
424	5	7.739	5.945	40.162998	#	5	TIP3
425	4	9.016	4.086	34.813999	#	4	TIP3
426	5	9.377	5.001	34.813	#	5	TIP3
427	5	8.726	3.741	35.660999	#	5	TIP3
428	4	6.439	5.144	33.455002	#	4	TIP3
429	5	7.31	4.836	33.837002	#	5	TIP3
430	5	6.121	5.819	34.116001	#	5	TIP3
431	4	11.316	2.273	33.956001	#	4	TIP3
432	5	11.391	1.358	34.151001	#	5	TIP3
433	5	10.423	2.479	34.181	#	5	TIP3
434	4	10.407	6.649	34.888	#	4	TIP3
435	5	9.81	7.215	35.386002	#	5	TIP3
436	5	11.077	6.417	35.547001	#	5	TIP3
437	4	8.9	7.31	37.290001	#	4	TIP3
438	5	8.739	6.706	38.077999	#	5	TIP3
439	5	9.555	8.003	37.530998	#	5	TIP3
440	4	3.08	0.949	37.787998	#	4	TIP3
441	5	3.69	0.5	37.172001	#	5	TIP3
442	5	2.196	0.556	37.640999	#	5	TIP3
443	4	6.255	9.802	26.364	#	4	TIP3
444	5	6.954	9.121	26.671	#	5	TIP3
445	5	5.459	9.264	26.195999	#	5	TIP3
446	4	6.14	3.669	29.704	#	4	TIP3
447	5	6.732	3.837	28.948999	#	5	TIP3
448	5	6.807	3.408	30.378	#	5	TIP3
449	4	5.15	11.685	37.993999	#	4	TIP3
450	5	5.312	12.641	38.02	#	5	TIP3
451	5	5.614	11.405	38.778	#	5	TIP3
452	4	0.688	2.781	33.113998	#	4	TIP3
453	5	1.488	3.19	32.702999	#	5	TIP3
454	5	0.053	3.429	32.93	#	5	TIP3
455	4	0.449	7.366	35.139999	#	4	TIP3
456	5	0.202	6.479	35.095001	#	5	TIP3
457	5	0.796	7.563	34.256001	#	5	TIP3
458	4	0.913	12.32	26.937	#	4	TIP3
459	5	0.623	11.7	26.268	#	5	TIP3
460	5	1.29	11.784	27.628	#	5	TIP3
461	4	3.406	0.117	40.493	#	4	TIP3
462	5	3.348	0.244	39.546001	#	5	TIP3
463	5	4.378	0.19	40.723999	#	5	TIP3
464	4	2.278	3.922	27.200001	#	4	TIP3
465	5	2.701	3.392	26.559999	#	5	TIP3
466	5	1.556	3.406	27.415001	#	5	TIP3
467	4	3.438	8.099	26.316	#	4	TIP3
468	5	2.547	7.847	26.577	#	5	TIP3
469	5	3.889	7.775	27.093	#	5	TIP3
470	4	1.562	6.536	38.238998	#	4	TIP3
471	5	0.96	7.25	38.049	#	5	TIP3
472	5	1.197	5.827	37.553001	#	5	TIP3
473	4	1.314	9.385	33.173	#	4	TIP3
474	5	1.333	8.706	32.444	#	5	TIP3
475	5	2.056	9.953	32.98	#	5	TIP3
476	4	7.572	0.42	29.478001	#	4	TIP3
477	5	7.636	0.339	28.503	#	5	TIP3
478	5	6.628	0.234	29.530001	#	5	TIP3
479	4	1.133	7.08	31.077999	#	4	TIP3
480	5	1.201	7.102	30.136999	#	5	TIP3
481	5	0.358	6.549	31.302	#	5	TIP3
482	4	5.279	5.755	37.457001	#	4	TIP3
483	5	4.504	5.333	36.966999	#	5	TIP3
484	5	5.564	4.986	38.019001	#	5	TIP3
485	4	0.675	11.574	36.952	#	4	TIP3
486	5	1.597	11.546	36.574001	#	5	TIP3
487	5	0.265	12.15	36.339001	#	5	TIP3
488	4	8.578	0.832	32.351002	#	4	TIP3
489	5	7.928	0.53	31.693001	#	5	TIP3
490	5	8.563	1.801	32.334999	#	5	TIP3
491	4	7.287	10.172	39.814999	#	4	TIP3
492	5	6.631	9.473	40.077	#	5	TIP3
493	5	8.119	9.669	39.852001	#	5	TIP3

