LAMMPS data file. CGCMM style. atom_style full generated by VMD/TopoTools v1.7 on Wed Feb 12 17:38:31 +0100 2025
 484 atoms
 5 atom types
 -7.032000 7.348000  xlo xhi
 -9.652806 5.469805  ylo yhi
 -23.870179 55.688180  zlo zhi
 3.837844 -45.791217 -48.276714 xy xz yz

 Masses

1 39.0983 # K
2 26.981538 # Al
3 28.0855 # Si
4 15.9994 # O
5 2 # H

 Atoms # full

1	1	-7.332	-8.778	14.505	#	1	MOL
2	1	-9.228	-5.239	21.134001	#	1	MOL
3	1	-1.872	-2.966	17.313	#	1	MOL
4	2	-5.666	1.373	18.063999	#	2	MOL
5	2	-5.434	-9.579	20.382999	#	2	MOL
6	2	-7.586	-6.188	18.063999	#	2	MOL
7	2	-3.514	-2.018	20.382999	#	2	MOL
8	3	-5.662	-5.645	13.869	#	3	MOL
9	3	-5.438	-2.561	24.579	#	3	MOL
10	3	-7.559	-2.106	20.499001	#	3	MOL
11	3	-3.542	-6.1	17.948999	#	3	MOL
12	3	-7.486	-0.714	23.15	#	3	MOL
13	3	-3.614	-7.492	15.298	#	3	MOL
14	3	-5.589	-4.252	16.518999	#	3	MOL
15	3	-5.511	-3.953	21.927999	#	3	MOL
16	3	-7.485	-9.192	18.076	#	3	MOL
17	3	-3.615	0.987	20.371	#	3	MOL
18	3	-5.566	-1.631	18.076	#	3	MOL
19	3	-5.535	-6.575	20.371	#	3	MOL
20	4	-0.058	1.858	18.273001	#	4	MOL
21	4	-11.042	-10.064	20.174999	#	4	MOL
22	4	-1.977	-5.703	18.273001	#	4	MOL
23	4	-9.123	-2.502	20.174999	#	4	MOL
24	4	-3.458	-9.084	15	#	4	MOL
25	4	-5.745	-2.659	16.816999	#	4	MOL
26	4	-5.355	-5.546	21.629999	#	4	MOL
27	4	-8.776	-1.495	23.719	#	4	MOL
28	4	-2.324	-6.711	14.729	#	4	MOL
29	4	-6.879	-5.033	17.087999	#	4	MOL
30	4	-4.221	-3.173	21.360001	#	4	MOL
31	4	-8.769	-9.344	19.054001	#	4	MOL
32	4	-2.331	1.138	19.393999	#	4	MOL
33	4	-6.85	-1.783	19.054001	#	4	MOL
34	4	-4.251	-6.423	19.393999	#	4	MOL
35	4	-5.518	-0.148	17.400999	#	4	MOL
36	4	-5.582	-8.058	21.046	#	4	MOL
37	4	-7.437	-7.709	17.400999	#	4	MOL
38	4	-3.663	-0.496	21.046	#	4	MOL
39	4	-5.515	-4.356	14.898	#	4	MOL
40	4	-5.585	-3.85	23.549999	#	4	MOL
41	4	-7.411	-0.817	21.527	#	4	MOL
42	4	-3.689	-7.389	16.92	#	4	MOL
43	4	-4.991	1.352	19.605	#	4	MOL
44	4	-6.109	-9.557	18.841999	#	4	MOL
45	4	-6.911	-6.21	19.605	#	4	MOL
46	4	-4.189	-1.996	18.841999	#	4	MOL
47	4	-4.991	-6.973	14.61	#	4	MOL
48	4	-6.109	-1.233	23.837999	#	4	MOL
49	4	-6.888	-3.435	21.24	#	4	MOL
50	4	-4.212	-4.771	17.207001	#	4	MOL
51	1	0.047	4.595	17.313	#	1	MOL
52	4	-3.825	4.902	16.816999	#	4	MOL
53	1	-11.147	-12.801	21.134001	#	1	MOL
54	1	-5.688	-6.989	23.943001	#	1	MOL
55	2	-9.482	-2.649	24.694	#	2	MOL
56	2	-11.401	-10.21	24.694	#	2	MOL
57	3	-9.478	-9.667	20.499001	#	3	MOL
58	3	-7.357	-10.122	24.579	#	3	MOL
59	3	-7.43	-11.515	21.927999	#	3	MOL
60	3	-9.405	-8.275	23.15	#	3	MOL
61	3	-11.301	-13.215	24.705999	#	3	MOL
62	3	-9.381	-5.654	24.705999	#	3	MOL
63	4	-3.873	-2.165	24.902	#	4	MOL
64	4	-5.793	-9.726	24.902	#	4	MOL
65	4	-7.275	-13.107	21.629999	#	4	MOL
66	4	-9.561	-6.683	23.448	#	4	MOL
67	4	-6.14	-10.734	21.360001	#	4	MOL
68	4	-10.695	-9.056	23.719	#	4	MOL
69	4	-12.585	-13.367	25.684	#	4	MOL
70	4	-6.147	-2.884	26.023001	#	4	MOL
71	4	-10.666	-5.806	25.684	#	4	MOL
72	4	-8.066	-10.446	26.023001	#	4	MOL
73	4	-9.334	-4.171	24.031	#	4	MOL
74	4	-11.253	-11.732	24.031	#	4	MOL
75	4	-9.331	-8.378	21.527	#	4	MOL
76	4	-7.505	-11.411	23.549999	#	4	MOL
77	4	-8.807	-2.671	26.235001	#	4	MOL
78	4	-9.925	-13.581	25.473	#	4	MOL
79	4	-10.726	-10.232	26.235001	#	4	MOL
80	4	-8.006	-6.019	25.473	#	4	MOL
81	4	-8.808	-10.996	21.24	#	4	MOL
82	4	-8.028	-8.794	23.837999	#	4	MOL
83	1	-3.769	0.572	23.943001	#	1	MOL
84	4	-7.642	0.879	23.448	#	4	MOL
85	1	-5.412	-1.217	14.505	#	1	MOL
86	2	-1.618	-5.556	13.754	#	2	MOL
87	2	0.301	2.005	13.754	#	2	MOL
88	3	-1.622	1.461	17.948999	#	3	MOL
89	3	-3.743	1.917	13.869	#	3	MOL
90	3	-3.67	3.309	16.518999	#	3	MOL
91	3	-1.695	0.07	15.298	#	3	MOL
92	3	0.2	5.009	13.742	#	3	MOL
93	3	-1.719	-2.552	13.742	#	3	MOL
94	4	-7.227	-6.041	13.545	#	4	MOL
95	4	-5.307	1.52	13.545	#	4	MOL
96	4	-1.539	-1.523	15	#	4	MOL
97	4	-4.96	2.528	17.087999	#	4	MOL
98	4	-0.405	0.85	14.729	#	4	MOL
99	4	-4.953	-5.321	12.424	#	4	MOL
100	4	1.484	5.161	12.764	#	4	MOL
101	4	-3.034	2.24	12.424	#	4	MOL
102	4	-0.435	-2.4	12.764	#	4	MOL
103	4	-1.766	-4.035	14.416	#	4	MOL
104	4	0.153	3.526	14.416	#	4	MOL
105	4	-1.77	0.173	16.92	#	4	MOL
106	4	-3.596	3.205	14.898	#	4	MOL
107	4	-1.175	5.375	12.975	#	4	MOL
108	4	-2.293	-5.535	12.213	#	4	MOL
109	4	-3.094	-2.186	12.975	#	4	MOL
110	4	-0.374	2.026	12.213	#	4	MOL
111	4	-2.293	2.79	17.207001	#	4	MOL
112	4	-3.072	0.589	14.61	#	4	MOL
113	5	-12.241	-13.458	26.735001	#	5	MOL
114	5	-5.372	-3.192	26.754999	#	5	MOL
115	5	-10.321	-5.897	26.735001	#	5	MOL
116	5	-7.291	-10.753	26.754999	#	5	MOL
117	5	-7.811	-2.924	26.655001	#	5	MOL
118	5	-10.032	-13.353	26.554001	#	5	MOL
119	5	-9.731	-10.485	26.655001	#	5	MOL
120	5	-8.113	-5.792	26.554001	#	5	MOL
121	1	-0.142	-8.778	14.505	#	1	MOL
122	1	-2.038	-5.239	21.134001	#	1	MOL
123	1	5.318	-2.966	17.313	#	1	MOL
124	2	1.524	1.373	18.063999	#	2	MOL
125	2	1.756	-9.579	20.382999	#	2	MOL
126	2	-0.396	-6.188	18.063999	#	2	MOL
127	2	3.676	-2.018	20.382999	#	2	MOL
128	3	1.528	-5.645	13.869	#	3	MOL
129	3	1.752	-2.561	24.579	#	3	MOL
130	3	-0.369	-2.106	20.499001	#	3	MOL
131	3	3.648	-6.1	17.948999	#	3	MOL
132	3	-0.296	-0.714	23.15	#	3	MOL
133	3	3.576	-7.492	15.298	#	3	MOL
134	3	1.601	-4.252	16.518999	#	3	MOL
135	3	1.679	-3.953	21.927999	#	3	MOL
136	3	-0.295	-9.192	18.076	#	3	MOL
137	3	3.575	0.987	20.371	#	3	MOL
138	3	1.624	-1.631	18.076	#	3	MOL
139	3	1.655	-6.575	20.371	#	3	MOL
140	4	7.132	1.858	18.273001	#	4	MOL
141	4	-3.852	-10.064	20.174999	#	4	MOL
142	4	5.213	-5.703	18.273001	#	4	MOL
143	4	-1.933	-2.502	20.174999	#	4	MOL
144	4	3.732	-9.084	15	#	4	MOL
145	4	1.445	-2.659	16.816999	#	4	MOL
146	4	1.835	-5.546	21.629999	#	4	MOL
147	4	-1.586	-1.495	23.719	#	4	MOL
148	4	4.866	-6.711	14.729	#	4	MOL
149	4	0.311	-5.033	17.087999	#	4	MOL
150	4	2.969	-3.173	21.360001	#	4	MOL
151	4	-1.579	-9.344	19.054001	#	4	MOL
152	4	4.859	1.138	19.393999	#	4	MOL
153	4	0.34	-1.783	19.054001	#	4	MOL
154	4	2.939	-6.423	19.393999	#	4	MOL
155	4	1.672	-0.148	17.400999	#	4	MOL
156	4	1.608	-8.058	21.046	#	4	MOL
157	4	-0.247	-7.709	17.400999	#	4	MOL
158	4	3.527	-0.496	21.046	#	4	MOL
159	4	1.675	-4.356	14.898	#	4	MOL
160	4	1.605	-3.85	23.549999	#	4	MOL
161	4	-0.221	-0.817	21.527	#	4	MOL
162	4	3.501	-7.389	16.92	#	4	MOL
163	4	2.199	1.352	19.605	#	4	MOL
164	4	1.081	-9.557	18.841999	#	4	MOL
165	4	0.279	-6.21	19.605	#	4	MOL
166	4	3.001	-1.996	18.841999	#	4	MOL
167	4	2.199	-6.973	14.61	#	4	MOL
168	4	1.081	-1.233	23.837999	#	4	MOL
169	4	0.302	-3.435	21.24	#	4	MOL
170	4	2.978	-4.771	17.207001	#	4	MOL
171	1	7.237	4.595	17.313	#	1	MOL
172	4	3.365	4.902	16.816999	#	4	MOL
173	1	-3.957	-12.801	21.134001	#	1	MOL
174	1	1.502	-6.989	23.943001	#	1	MOL
175	2	-2.292	-2.649	24.694	#	2	MOL
176	2	-4.211	-10.21	24.694	#	2	MOL
177	3	-2.288	-9.667	20.499001	#	3	MOL
178	3	-0.167	-10.122	24.579	#	3	MOL
179	3	-0.24	-11.515	21.927999	#	3	MOL
180	3	-2.215	-8.275	23.15	#	3	MOL
181	3	-4.111	-13.215	24.705999	#	3	MOL
182	3	-2.191	-5.654	24.705999	#	3	MOL
183	4	3.317	-2.165	24.902	#	4	MOL
184	4	1.397	-9.726	24.902	#	4	MOL
185	4	-0.085	-13.107	21.629999	#	4	MOL
186	4	-2.371	-6.683	23.448	#	4	MOL
187	4	1.05	-10.734	21.360001	#	4	MOL
188	4	-3.505	-9.056	23.719	#	4	MOL
189	4	-5.395	-13.367	25.684	#	4	MOL
190	4	1.043	-2.884	26.023001	#	4	MOL
191	4	-3.476	-5.806	25.684	#	4	MOL
192	4	-0.876	-10.446	26.023001	#	4	MOL
193	4	-2.144	-4.171	24.031	#	4	MOL
194	4	-4.063	-11.732	24.031	#	4	MOL
195	4	-2.141	-8.378	21.527	#	4	MOL
196	4	-0.315	-11.411	23.549999	#	4	MOL
197	4	-1.617	-2.671	26.235001	#	4	MOL
198	4	-2.735	-13.581	25.473	#	4	MOL
199	4	-3.536	-10.232	26.235001	#	4	MOL
200	4	-0.816	-6.019	25.473	#	4	MOL
201	4	-1.618	-10.996	21.24	#	4	MOL
202	4	-0.838	-8.794	23.837999	#	4	MOL
203	1	3.421	0.572	23.943001	#	1	MOL
204	4	-0.452	0.879	23.448	#	4	MOL
205	1	1.778	-1.217	14.505	#	1	MOL
206	2	5.572	-5.556	13.754	#	2	MOL
207	2	7.491	2.005	13.754	#	2	MOL
208	3	5.568	1.461	17.948999	#	3	MOL
209	3	3.447	1.917	13.869	#	3	MOL
210	3	3.52	3.309	16.518999	#	3	MOL
211	3	5.495	0.07	15.298	#	3	MOL
212	3	7.39	5.009	13.742	#	3	MOL
213	3	5.471	-2.552	13.742	#	3	MOL
214	4	-0.037	-6.041	13.545	#	4	MOL
215	4	1.883	1.52	13.545	#	4	MOL
216	4	5.651	-1.523	15	#	4	MOL
217	4	2.23	2.528	17.087999	#	4	MOL
218	4	6.785	0.85	14.729	#	4	MOL
219	4	2.237	-5.321	12.424	#	4	MOL
220	4	8.674	5.161	12.764	#	4	MOL
221	4	4.156	2.24	12.424	#	4	MOL
222	4	6.755	-2.4	12.764	#	4	MOL
223	4	5.424	-4.035	14.416	#	4	MOL
224	4	7.343	3.526	14.416	#	4	MOL
225	4	5.42	0.173	16.92	#	4	MOL
226	4	3.594	3.205	14.898	#	4	MOL
227	4	6.015	5.375	12.975	#	4	MOL
228	4	4.897	-5.535	12.213	#	4	MOL
229	4	4.096	-2.186	12.975	#	4	MOL
230	4	6.816	2.026	12.213	#	4	MOL
231	4	4.897	2.79	17.207001	#	4	MOL
232	4	4.118	0.589	14.61	#	4	MOL
233	5	-5.051	-13.458	26.735001	#	5	MOL
234	5	1.818	-3.192	26.754999	#	5	MOL
235	5	-3.131	-5.897	26.735001	#	5	MOL
236	5	-0.101	-10.753	26.754999	#	5	MOL
237	5	-0.621	-2.924	26.655001	#	5	MOL
238	5	-2.842	-13.353	26.554001	#	5	MOL
239	5	-2.541	-10.485	26.655001	#	5	MOL
240	5	-0.923	-5.792	26.554001	#	5	MOL
241	5	-3.858	-5.484	12.505	#	5	MOL
242	5	2.415	5.139	13.369	#	5	MOL
243	5	-1.939	2.077	12.505	#	5	MOL
244	5	0.496	-2.422	13.369	#	5	MOL
245	5	-1.912	5.77	13.705	#	5	MOL
246	5	-1.297	-5.788	12.632	#	5	MOL
247	5	-3.831	-1.791	13.705	#	5	MOL
248	5	0.622	1.774	12.632	#	5	MOL
249	5	3.332	-5.484	12.505	#	5	MOL
250	5	9.605	5.139	13.369	#	5	MOL
251	5	5.251	2.077	12.505	#	5	MOL
252	5	7.686	-2.422	13.369	#	5	MOL
253	5	5.278	5.77	13.705	#	5	MOL
254	5	5.893	-5.788	12.632	#	5	MOL
255	5	3.359	-1.791	13.705	#	5	MOL
256	5	7.812	1.774	12.632	#	5	MOL
257	4	-6.332	0.082	44.903999	#	4	TIP3
258	5	-6.776	0.451	44.101002	#	5	TIP3
259	5	-6.908	0.379	45.626999	#	5	TIP3
260	4	-7.25	-1.156	38.629002	#	4	TIP3
261	5	-7.89	-1.71	38.998001	#	5	TIP3
262	5	-7.836	-0.755	37.962002	#	5	TIP3
263	4	0.674	-1.091	33.986	#	4	TIP3
264	5	0.998	-1.129	34.931999	#	5	TIP3
265	5	-0.252	-0.73	34.075001	#	5	TIP3
266	4	-9.998	-4.333	43.591	#	4	TIP3
267	5	-9.517	-4.01	42.830002	#	5	TIP3
268	5	-9.392	-4.219	44.347	#	5	TIP3
269	4	-0.118	-0.844	43.916	#	4	TIP3
270	5	-0.426	-0.247	44.597	#	5	TIP3
271	5	0.021	-1.736	44.289001	#	5	TIP3
272	4	-8.339	-3.319	30.943001	#	4	TIP3
273	5	-8.057	-4.261	30.981001	#	5	TIP3
274	5	-9.222	-3.401	30.483	#	5	TIP3
275	4	0.426	-2.396	31.403999	#	4	TIP3
276	5	0.761	-1.599	30.993999	#	5	TIP3
277	5	0.248	-2.111	32.307999	#	5	TIP3
278	4	0.926	-4.635	30.018	#	4	TIP3
279	5	1.138	-5.231	30.754	#	5	TIP3
280	5	0.657	-3.788	30.493	#	5	TIP3
281	4	-1.108	2.977	34.320999	#	4	TIP3
282	5	-1.881	2.478	34.443001	#	5	TIP3
283	5	-0.658	2.557	33.535999	#	5	TIP3
284	4	-0.065	2.876	39.191002	#	4	TIP3
285	5	-0.291	2.098	38.633999	#	5	TIP3
286	5	-0.528	2.766	40.018002	#	5	TIP3
287	4	-1.177	0.581	37.827	#	4	TIP3
288	5	-1.817	0.753	37.147999	#	5	TIP3
289	5	-1.611	0.061	38.534	#	5	TIP3
290	4	-0.922	1.967	41.734001	#	4	TIP3
291	5	-1.772	1.561	41.993	#	5	TIP3
292	5	-0.488	2.194	42.560001	#	5	TIP3
293	4	0.282	-9.36	31.052999	#	4	TIP3
294	5	0.367	-9.041	32.015999	#	5	TIP3
295	5	-0.257	-8.677	30.667	#	5	TIP3
296	4	-5.382	-1.875	36.777	#	4	TIP3
297	5	-4.595	-2.081	37.313999	#	5	TIP3
298	5	-5.998	-1.542	37.422001	#	5	TIP3
299	4	-6.597	-5.313	38.814999	#	4	TIP3
300	5	-6.891	-4.728	38.097	#	5	TIP3
301	5	-6.183	-6.027	38.327	#	5	TIP3
302	4	-6.881	0.325	42.158001	#	4	TIP3
303	5	-6.402	0.9	41.512001	#	5	TIP3
304	5	-6.56	-0.57	41.962002	#	5	TIP3
305	4	-7.656	0.571	31.624001	#	4	TIP3
306	5	-7.878	0.753	32.553001	#	5	TIP3
307	5	-7.053	-0.209	31.617001	#	5	TIP3
308	4	-7.29	-3.815	36.540001	#	4	TIP3
309	5	-7.533	-3.764	35.561001	#	5	TIP3
310	5	-6.59	-3.145	36.580002	#	5	TIP3
311	4	-9.253	-5.531	39.578999	#	4	TIP3
312	5	-9.574	-6.432	39.339001	#	5	TIP3
313	5	-8.495	-5.415	38.990002	#	5	TIP3
314	4	0.704	-3.279	44.882999	#	4	TIP3
315	5	0.901	-3.088	45.835999	#	5	TIP3
316	5	0.127	-4.028	44.998001	#	5	TIP3
317	4	-2.973	-7.776	42.410999	#	4	TIP3
318	5	-3.815	-7.199	42.535	#	5	TIP3
319	5	-3.308	-8.597	42.742001	#	5	TIP3
320	4	-5.972	-2.301	41.776001	#	4	TIP3
321	5	-5.423	-2.807	41.138	#	5	TIP3
322	5	-6.829	-2.68	41.543999	#	5	TIP3
323	4	1.177	-0.39	36.928001	#	4	TIP3
324	5	0.443	0.172	37.053001	#	5	TIP3
325	5	0.866	-1.212	37.298	#	5	TIP3
326	4	-8.162	-6.794	44.397999	#	4	TIP3
327	5	-7.799	-5.919	44.544998	#	5	TIP3
328	5	-7.883	-7.001	43.422001	#	5	TIP3
329	4	-2.071	-0.399	33.321999	#	4	TIP3
330	5	-2.636	0.34	32.911999	#	5	TIP3
331	5	-2.682	-0.989	33.82	#	5	TIP3
332	4	-6.68	-8.561	32.693001	#	4	TIP3
333	5	-6.982	-8.737	31.795	#	5	TIP3
334	5	-5.782	-8.263	32.533001	#	5	TIP3
335	4	-5.461	-7.395	37.294998	#	4	TIP3
336	5	-4.54	-7.298	37.123001	#	5	TIP3
337	5	-5.566	-8.384	37.362999	#	5	TIP3
338	4	-3.333	-2.453	38.646	#	4	TIP3
339	5	-3.897	-3.025	39.296001	#	5	TIP3
340	5	-2.442	-2.708	39.046001	#	5	TIP3
341	4	-5.346	-4.283	34.022999	#	4	TIP3
342	5	-4.941	-4.874	33.395	#	5	TIP3
343	5	-4.591	-4.215	34.633999	#	5	TIP3
344	4	-6.314	-1.647	32.401001	#	4	TIP3
345	5	-5.506	-2.07	32.084	#	5	TIP3
346	5	-6.959	-2.273	32.196999	#	5	TIP3
347	4	0.03	1.441	32.433998	#	4	TIP3
348	5	-0.726	0.827	32.422001	#	5	TIP3
349	5	0.533	1.362	31.660999	#	5	TIP3
350	4	0.55	-0.456	40.314999	#	4	TIP3
351	5	0.055	0.343	40.396	#	5	TIP3
352	5	1.46	-0.154	40.337002	#	5	TIP3
353	4	-4.55	-0.933	34.337002	#	4	TIP3
354	5	-5.278	-1.16	33.710999	#	5	TIP3
355	5	-5.061	-1.23	35.117001	#	5	TIP3
356	4	-3.143	1.138	35.828999	#	4	TIP3
357	5	-3.893	1.75	35.799999	#	5	TIP3
358	5	-3.52	0.387	35.353001	#	5	TIP3
359	4	-0.803	-5.625	44.964001	#	4	TIP3
360	5	-0.837	-6.41	44.387001	#	5	TIP3
361	5	-1.484	-5.833	45.604	#	5	TIP3
362	4	-7.579	-6.225	34.057999	#	4	TIP3
363	5	-7.316	-7.066	33.652	#	5	TIP3
364	5	-6.781	-5.66	34.048	#	5	TIP3
365	4	-4.859	-8.389	29.499001	#	4	TIP3
366	5	-5.303	-8.89	30.233999	#	5	TIP3
367	5	-3.969	-8.698	29.586	#	5	TIP3
368	4	-7.491	-6.495	41.91	#	4	TIP3
369	5	-7.886	-5.862	41.314999	#	5	TIP3
370	5	-7.285	-7.288	41.382999	#	5	TIP3
371	4	-4.539	-3.246	30.943001	#	4	TIP3
372	5	-3.588	-3.373	31.018	#	5	TIP3
373	5	-4.791	-4.044	30.434	#	5	TIP3
374	4	-2.686	-9.772	38.152	#	4	TIP3
375	5	-2.553	-9.804	37.157001	#	5	TIP3
376	5	-1.781	-9.664	38.425999	#	5	TIP3
377	4	-9.711	0.538	42.467999	#	4	TIP3
378	5	-9.714	0.937	41.602001	#	5	TIP3
379	5	-8.738	0.357	42.668999	#	5	TIP3
380	4	-3.032	1.629	31.353001	#	4	TIP3
381	5	-3.425	0.896	30.806999	#	5	TIP3
382	5	-2.917	2.29	30.59	#	5	TIP3
383	4	0.963	-8.263	40.790001	#	4	TIP3
384	5	0.319	-7.76	40.334	#	5	TIP3
385	5	1.709	-7.833	40.209999	#	5	TIP3
386	4	-4.474	-1.631	43.858002	#	4	TIP3
387	5	-5.05	-1.782	43.071999	#	5	TIP3
388	5	-5.055	-1.081	44.362999	#	5	TIP3
389	4	-2.471	-5.492	30.396	#	4	TIP3
390	5	-1.687	-5.418	29.857	#	5	TIP3
391	5	-3.217	-5.489	29.768	#	5	TIP3
392	4	-5.116	-5.919	42.713001	#	4	TIP3
393	5	-5.03	-5.254	43.373001	#	5	TIP3
394	5	-6.068	-6.025	42.592999	#	5	TIP3
395	4	-6.826	1.159	34.953999	#	4	TIP3
396	5	-6.096	1.073	34.352001	#	5	TIP3
397	5	-6.796	2.104	35.129002	#	5	TIP3
398	4	-6.883	1.819	39.07	#	4	TIP3
399	5	-6.51	2.496	38.522999	#	5	TIP3
400	5	-6.063	1.583	39.539001	#	5	TIP3
401	4	0.05	-4.395	34.757999	#	4	TIP3
402	5	0.155	-3.446	34.556	#	5	TIP3
403	5	0.797	-4.611	35.308998	#	5	TIP3
404	4	-2.119	-6.482	34.700001	#	4	TIP3
405	5	-1.45	-5.775	34.812	#	5	TIP3
406	5	-2.93	-6.166	35.168999	#	5	TIP3
407	4	-1.441	-6.485	40.535	#	4	TIP3
408	5	-1.565	-5.702	41.154999	#	5	TIP3
409	5	-2.045	-7.101	40.952	#	5	TIP3
410	4	-1.6	-4.448	42.556999	#	4	TIP3
411	5	-0.93	-4.76	43.185001	#	5	TIP3
412	5	-2.261	-4.055	43.162998	#	5	TIP3
413	4	-0.984	-5.914	37.813999	#	4	TIP3
414	5	-0.623	-4.999	37.813	#	5	TIP3
415	5	-1.274	-6.259	38.660999	#	5	TIP3
416	4	-3.561	-4.856	36.455002	#	4	TIP3
417	5	-2.69	-5.164	36.837002	#	5	TIP3
418	5	-3.879	-4.181	37.116001	#	5	TIP3
419	4	-0.869	-8.925	44.841	#	4	TIP3
420	5	-0.052	-8.537	44.411999	#	5	TIP3
421	5	-0.887	-9.839	44.464001	#	5	TIP3
422	4	1.316	-7.727	36.956001	#	4	TIP3
423	5	1.391	-8.642	37.151001	#	5	TIP3
424	5	0.423	-7.521	37.181	#	5	TIP3
425	4	0.407	-3.351	37.888	#	4	TIP3
426	5	-0.19	-2.785	38.386002	#	5	TIP3
427	5	1.077	-3.583	38.547001	#	5	TIP3
428	4	-1.1	-2.69	40.290001	#	4	TIP3
429	5	-1.261	-3.294	41.077999	#	5	TIP3
430	5	-0.445	-1.997	40.530998	#	5	TIP3
431	4	-6.92	-9.051	40.787998	#	4	TIP3
432	5	-6.31	-9.5	40.172001	#	5	TIP3
433	5	-7.804	-9.444	40.640999	#	5	TIP3
434	4	-3.745	-0.198	29.364	#	4	TIP3
435	5	-3.046	-0.879	29.671	#	5	TIP3
436	5	-4.541	-0.736	29.195999	#	5	TIP3
437	4	-3.86	-6.331	32.703999	#	4	TIP3
438	5	-3.268	-6.163	31.948999	#	5	TIP3
439	5	-3.193	-6.592	33.377998	#	5	TIP3
440	4	-4.85	1.685	40.993999	#	4	TIP3
441	5	-4.688	2.641	41.02	#	5	TIP3
442	5	-4.386	1.405	41.778	#	5	TIP3
443	4	-9.312	-7.219	36.113998	#	4	TIP3
444	5	-8.512	-6.81	35.702999	#	5	TIP3
445	5	-9.947	-6.571	35.93	#	5	TIP3
446	4	-9.551	-2.634	38.139999	#	4	TIP3
447	5	-9.798	-3.521	38.095001	#	5	TIP3
448	5	-9.204	-2.437	37.256001	#	5	TIP3
449	4	-9.087	2.32	29.937	#	4	TIP3
450	5	-9.377	1.7	29.268	#	5	TIP3
451	5	-8.71	1.784	30.628	#	5	TIP3
452	4	-6.594	-9.883	43.493	#	4	TIP3
453	5	-6.652	-9.756	42.546001	#	5	TIP3
454	5	-5.622	-9.81	43.723999	#	5	TIP3
455	4	-7.722	-6.078	30.200001	#	4	TIP3
456	5	-7.299	-6.608	29.559999	#	5	TIP3
457	5	-8.444	-6.594	30.415001	#	5	TIP3
458	4	-6.562	-1.901	29.316	#	4	TIP3
459	5	-7.453	-2.153	29.577	#	5	TIP3
460	5	-6.111	-2.225	30.093	#	5	TIP3
461	4	-8.438	-3.464	41.238998	#	4	TIP3
462	5	-9.04	-2.75	41.049	#	5	TIP3
463	5	-8.803	-4.173	40.553001	#	5	TIP3
464	4	-8.686	-0.615	36.173	#	4	TIP3
465	5	-8.667	-1.294	35.444	#	5	TIP3
466	5	-7.944	-0.047	35.98	#	5	TIP3
467	4	-2.428	-9.58	32.478001	#	4	TIP3
468	5	-2.364	-9.661	31.503	#	5	TIP3
469	5	-3.372	-9.766	32.529999	#	5	TIP3
470	4	-8.867	-2.92	34.077999	#	4	TIP3
471	5	-8.799	-2.898	33.137001	#	5	TIP3
472	5	-9.642	-3.451	34.301998	#	5	TIP3
473	4	-4.721	-4.245	40.457001	#	4	TIP3
474	5	-5.496	-4.667	39.966999	#	5	TIP3
475	5	-4.436	-5.014	41.019001	#	5	TIP3
476	4	-9.325	1.574	39.952	#	4	TIP3
477	5	-8.403	1.546	39.574001	#	5	TIP3
478	5	-9.735	2.15	39.339001	#	5	TIP3
479	4	-1.422	-9.168	35.351002	#	4	TIP3
480	5	-2.072	-9.47	34.693001	#	5	TIP3
481	5	-1.437	-8.199	35.334999	#	5	TIP3
482	4	-2.713	0.172	42.814999	#	4	TIP3
483	5	-3.369	-0.527	43.077	#	5	TIP3
484	5	-1.881	-0.331	42.852001	#	5	TIP3
