LAMMPS data file. CGCMM style. atom_style full generated by VMD/TopoTools v1.7 on Wed Feb 12 17:49:59 +0100 2025
 404 atoms
 5 atom types
 -4.638500 9.741500  xlo xhi
 -7.080806 8.041805  ylo yhi
 -28.098179 51.460180  zlo zhi
 3.837844 -45.791217 -48.276714 xy xz yz

 Masses

1 39.0983 # K
2 26.981538 # Al
3 28.0855 # Si
4 15.9994 # O
5 2 # H

 Atoms # full

1	2	-4.743	-8.851	19.183001	#	2	MOL
2	2	-6.895	-5.459	16.864	#	2	MOL
3	3	-2.851	-5.371	16.747999	#	3	MOL
4	3	-2.924	-6.764	14.098	#	3	MOL
5	3	-4.898	-3.524	15.319	#	3	MOL
6	3	-6.794	-8.464	16.875999	#	3	MOL
7	3	-4.844	-5.846	19.171	#	3	MOL
8	4	-10.352	-9.336	18.975	#	4	MOL
9	4	-1.286	-4.975	17.072001	#	4	MOL
10	4	-2.768	-8.356	13.8	#	4	MOL
11	4	-1.634	-5.983	13.529	#	4	MOL
12	4	-6.188	-4.305	15.888	#	4	MOL
13	4	-8.078	-8.616	17.853001	#	4	MOL
14	4	-3.56	-5.694	18.193001	#	4	MOL
15	4	-4.892	-7.33	19.846001	#	4	MOL
16	4	-6.746	-6.981	16.201	#	4	MOL
17	4	-4.824	-3.627	13.697	#	4	MOL
18	4	-2.998	-6.66	15.72	#	4	MOL
19	4	-5.418	-8.829	17.643	#	4	MOL
20	4	-6.22	-5.481	18.405001	#	4	MOL
21	4	-4.301	-6.245	13.41	#	4	MOL
22	4	-3.521	-4.043	16.007999	#	4	MOL
23	1	0.738	5.323	16.113001	#	1	MOL
24	3	-0.931	2.19	16.747999	#	3	MOL
25	3	-2.979	4.037	15.319	#	3	MOL
26	3	-1.004	0.798	14.098	#	3	MOL
27	4	-3.135	5.63	15.618	#	4	MOL
28	4	-0.849	-0.795	13.8	#	4	MOL
29	4	-4.269	3.256	15.888	#	4	MOL
30	4	0.286	1.578	13.529	#	4	MOL
31	4	-1.079	0.901	15.72	#	4	MOL
32	4	-2.905	3.934	13.697	#	4	MOL
33	4	-1.602	3.518	16.007999	#	4	MOL
34	4	-2.382	1.316	13.41	#	4	MOL
35	1	-10.456	-12.072	19.934	#	1	MOL
36	3	-8.787	-8.939	19.298	#	3	MOL
37	3	-6.739	-10.786	20.728001	#	3	MOL
38	3	-8.714	-7.547	21.948999	#	3	MOL
39	4	-6.584	-12.379	20.43	#	4	MOL
40	4	-5.449	-10.006	20.159	#	4	MOL
41	4	-10.004	-8.328	22.518	#	4	MOL
42	4	-8.64	-7.65	20.327999	#	4	MOL
43	4	-6.814	-10.683	22.349001	#	4	MOL
44	4	-8.117	-10.267	20.040001	#	4	MOL
45	4	-7.337	-8.066	22.636999	#	4	MOL
46	1	-8.537	-4.511	19.934	#	1	MOL
47	1	-1.181	-2.238	16.113001	#	1	MOL
48	2	-4.975	2.102	16.864	#	2	MOL
49	2	-2.823	-1.289	19.183001	#	2	MOL
50	3	-6.868	-1.378	19.298	#	3	MOL
51	3	-6.795	0.014	21.948999	#	3	MOL
52	3	-4.82	-3.225	20.728001	#	3	MOL
53	3	-2.924	1.715	19.171	#	3	MOL
54	3	-4.875	-0.903	16.875999	#	3	MOL
55	4	0.633	2.586	17.072001	#	4	MOL
56	4	-8.433	-1.774	18.975	#	4	MOL
57	4	-6.951	1.607	22.247	#	4	MOL
58	4	-5.054	-1.932	15.618	#	4	MOL
59	4	-4.664	-4.818	20.43	#	4	MOL
60	4	-8.085	-0.766	22.518	#	4	MOL
61	4	-3.53	-2.444	20.159	#	4	MOL
62	4	-1.64	1.867	18.193001	#	4	MOL
63	4	-6.159	-1.054	17.853001	#	4	MOL
64	4	-4.827	0.58	16.201	#	4	MOL
65	4	-2.972	0.231	19.846001	#	4	MOL
66	4	-4.894	-3.122	22.349001	#	4	MOL
67	4	-6.721	-0.089	20.327999	#	4	MOL
68	4	-4.3	2.08	18.405001	#	4	MOL
69	4	-3.499	-1.268	17.643	#	4	MOL
70	4	-5.418	-0.505	22.636999	#	4	MOL
71	4	-6.197	-2.706	20.040001	#	4	MOL
72	4	-8.87	-5.954	22.247	#	4	MOL
73	5	-9.904	-8.457	23.615999	#	5	MOL
74	5	-7.825	-10.34	22.652	#	5	MOL
75	5	-7.381	-7.888	23.732	#	5	MOL
76	5	-10.139	-13.234	23.101999	#	5	MOL
77	5	-7.985	-0.895	23.615999	#	5	MOL
78	5	-5.906	-2.779	22.652	#	5	MOL
79	5	-5.461	-0.327	23.732	#	5	MOL
80	5	-8.22	-5.672	23.101999	#	5	MOL
81	2	2.447	-8.851	19.183001	#	2	MOL
82	2	0.295	-5.459	16.864	#	2	MOL
83	3	4.339	-5.371	16.747999	#	3	MOL
84	3	4.266	-6.764	14.098	#	3	MOL
85	3	2.292	-3.524	15.319	#	3	MOL
86	3	0.396	-8.464	16.875999	#	3	MOL
87	3	2.346	-5.846	19.171	#	3	MOL
88	4	-3.162	-9.336	18.975	#	4	MOL
89	4	5.904	-4.975	17.072001	#	4	MOL
90	4	4.422	-8.356	13.8	#	4	MOL
91	4	5.556	-5.983	13.529	#	4	MOL
92	4	1.002	-4.305	15.888	#	4	MOL
93	4	-0.888	-8.616	17.853001	#	4	MOL
94	4	3.63	-5.694	18.193001	#	4	MOL
95	4	2.298	-7.33	19.846001	#	4	MOL
96	4	0.444	-6.981	16.201	#	4	MOL
97	4	2.366	-3.627	13.697	#	4	MOL
98	4	4.192	-6.66	15.72	#	4	MOL
99	4	1.772	-8.829	17.643	#	4	MOL
100	4	0.97	-5.481	18.405001	#	4	MOL
101	4	2.889	-6.245	13.41	#	4	MOL
102	4	3.669	-4.043	16.007999	#	4	MOL
103	1	7.928	5.323	16.113001	#	1	MOL
104	3	6.259	2.19	16.747999	#	3	MOL
105	3	4.211	4.037	15.319	#	3	MOL
106	3	6.186	0.798	14.098	#	3	MOL
107	4	4.055	5.63	15.618	#	4	MOL
108	4	6.341	-0.795	13.8	#	4	MOL
109	4	2.921	3.256	15.888	#	4	MOL
110	4	7.476	1.578	13.529	#	4	MOL
111	4	6.111	0.901	15.72	#	4	MOL
112	4	4.285	3.934	13.697	#	4	MOL
113	4	5.588	3.518	16.007999	#	4	MOL
114	4	4.808	1.316	13.41	#	4	MOL
115	1	-3.266	-12.072	19.934	#	1	MOL
116	3	-1.597	-8.939	19.298	#	3	MOL
117	3	0.451	-10.786	20.728001	#	3	MOL
118	3	-1.524	-7.547	21.948999	#	3	MOL
119	4	0.606	-12.379	20.43	#	4	MOL
120	4	1.741	-10.006	20.159	#	4	MOL
121	4	-2.814	-8.328	22.518	#	4	MOL
122	4	-1.45	-7.65	20.327999	#	4	MOL
123	4	0.376	-10.683	22.349001	#	4	MOL
124	4	-0.927	-10.267	20.040001	#	4	MOL
125	4	-0.147	-8.066	22.636999	#	4	MOL
126	1	-1.347	-4.511	19.934	#	1	MOL
127	1	6.009	-2.238	16.113001	#	1	MOL
128	2	2.215	2.102	16.864	#	2	MOL
129	2	4.367	-1.289	19.183001	#	2	MOL
130	3	0.322	-1.378	19.298	#	3	MOL
131	3	0.395	0.014	21.948999	#	3	MOL
132	3	2.37	-3.225	20.728001	#	3	MOL
133	3	4.266	1.715	19.171	#	3	MOL
134	3	2.315	-0.903	16.875999	#	3	MOL
135	4	7.823	2.586	17.072001	#	4	MOL
136	4	-1.243	-1.774	18.975	#	4	MOL
137	4	0.239	1.607	22.247	#	4	MOL
138	4	2.136	-1.932	15.618	#	4	MOL
139	4	2.526	-4.818	20.43	#	4	MOL
140	4	-0.895	-0.766	22.518	#	4	MOL
141	4	3.66	-2.444	20.159	#	4	MOL
142	4	5.55	1.867	18.193001	#	4	MOL
143	4	1.031	-1.054	17.853001	#	4	MOL
144	4	2.363	0.58	16.201	#	4	MOL
145	4	4.218	0.231	19.846001	#	4	MOL
146	4	2.296	-3.122	22.349001	#	4	MOL
147	4	0.469	-0.089	20.327999	#	4	MOL
148	4	2.89	2.08	18.405001	#	4	MOL
149	4	3.691	-1.268	17.643	#	4	MOL
150	4	1.772	-0.505	22.636999	#	4	MOL
151	4	0.993	-2.706	20.040001	#	4	MOL
152	4	-1.68	-5.954	22.247	#	4	MOL
153	5	-2.714	-8.457	23.615999	#	5	MOL
154	5	-0.635	-10.34	22.652	#	5	MOL
155	5	-0.191	-7.888	23.732	#	5	MOL
156	5	-2.949	-13.234	23.101999	#	5	MOL
157	5	-0.795	-0.895	23.615999	#	5	MOL
158	5	1.284	-2.779	22.652	#	5	MOL
159	5	1.729	-0.327	23.732	#	5	MOL
160	5	-1.03	-5.672	23.101999	#	5	MOL
161	5	-2.047	-8.799	14.518	#	5	MOL
162	5	-0.941	-5.753	14.366	#	5	MOL
163	5	-5.801	-3.332	13.262	#	5	MOL
164	5	-4.972	-5.831	14.191	#	5	MOL
165	5	-0.128	-1.237	14.518	#	5	MOL
166	5	0.978	1.808	14.366	#	5	MOL
167	5	-3.882	4.229	13.262	#	5	MOL
168	5	-3.053	1.731	14.191	#	5	MOL
169	5	5.143	-8.799	14.518	#	5	MOL
170	5	6.249	-5.753	14.366	#	5	MOL
171	5	1.389	-3.332	13.262	#	5	MOL
172	5	2.218	-5.831	14.191	#	5	MOL
173	5	7.062	-1.237	14.518	#	5	MOL
174	5	8.168	1.808	14.366	#	5	MOL
175	5	3.308	4.229	13.262	#	5	MOL
176	5	4.137	1.731	14.191	#	5	MOL
177	4	-6.332	0.082	44.903999	#	4	TIP3
178	5	-6.776	0.451	44.101002	#	5	TIP3
179	5	-6.908	0.379	45.626999	#	5	TIP3
180	4	-7.25	-1.156	38.629002	#	4	TIP3
181	5	-7.89	-1.71	38.998001	#	5	TIP3
182	5	-7.836	-0.755	37.962002	#	5	TIP3
183	4	0.674	-1.091	33.986	#	4	TIP3
184	5	0.998	-1.129	34.931999	#	5	TIP3
185	5	-0.252	-0.73	34.075001	#	5	TIP3
186	4	-9.998	-4.333	43.591	#	4	TIP3
187	5	-9.517	-4.01	42.830002	#	5	TIP3
188	5	-9.392	-4.219	44.347	#	5	TIP3
189	4	-0.118	-0.844	43.916	#	4	TIP3
190	5	-0.426	-0.247	44.597	#	5	TIP3
191	5	0.021	-1.736	44.289001	#	5	TIP3
192	4	-8.339	-3.319	30.943001	#	4	TIP3
193	5	-8.057	-4.261	30.981001	#	5	TIP3
194	5	-9.222	-3.401	30.483	#	5	TIP3
195	4	0.426	-2.396	31.403999	#	4	TIP3
196	5	0.761	-1.599	30.993999	#	5	TIP3
197	5	0.248	-2.111	32.307999	#	5	TIP3
198	4	0.926	-4.635	30.018	#	4	TIP3
199	5	1.138	-5.231	30.754	#	5	TIP3
200	5	0.657	-3.788	30.493	#	5	TIP3
201	4	-1.108	2.977	34.320999	#	4	TIP3
202	5	-1.881	2.478	34.443001	#	5	TIP3
203	5	-0.658	2.557	33.535999	#	5	TIP3
204	4	-0.065	2.876	39.191002	#	4	TIP3
205	5	-0.291	2.098	38.633999	#	5	TIP3
206	5	-0.528	2.766	40.018002	#	5	TIP3
207	4	-1.177	0.581	37.827	#	4	TIP3
208	5	-1.817	0.753	37.147999	#	5	TIP3
209	5	-1.611	0.061	38.534	#	5	TIP3
210	4	-0.922	1.967	41.734001	#	4	TIP3
211	5	-1.772	1.561	41.993	#	5	TIP3
212	5	-0.488	2.194	42.560001	#	5	TIP3
213	4	0.282	-9.36	31.052999	#	4	TIP3
214	5	0.367	-9.041	32.015999	#	5	TIP3
215	5	-0.257	-8.677	30.667	#	5	TIP3
216	4	-5.382	-1.875	36.777	#	4	TIP3
217	5	-4.595	-2.081	37.313999	#	5	TIP3
218	5	-5.998	-1.542	37.422001	#	5	TIP3
219	4	-6.597	-5.313	38.814999	#	4	TIP3
220	5	-6.891	-4.728	38.097	#	5	TIP3
221	5	-6.183	-6.027	38.327	#	5	TIP3
222	4	-6.881	0.325	42.158001	#	4	TIP3
223	5	-6.402	0.9	41.512001	#	5	TIP3
224	5	-6.56	-0.57	41.962002	#	5	TIP3
225	4	-7.656	0.571	31.624001	#	4	TIP3
226	5	-7.878	0.753	32.553001	#	5	TIP3
227	5	-7.053	-0.209	31.617001	#	5	TIP3
228	4	-7.29	-3.815	36.540001	#	4	TIP3
229	5	-7.533	-3.764	35.561001	#	5	TIP3
230	5	-6.59	-3.145	36.580002	#	5	TIP3
231	4	-9.253	-5.531	39.578999	#	4	TIP3
232	5	-9.574	-6.432	39.339001	#	5	TIP3
233	5	-8.495	-5.415	38.990002	#	5	TIP3
234	4	0.704	-3.279	44.882999	#	4	TIP3
235	5	0.901	-3.088	45.835999	#	5	TIP3
236	5	0.127	-4.028	44.998001	#	5	TIP3
237	4	-2.973	-7.776	42.410999	#	4	TIP3
238	5	-3.815	-7.199	42.535	#	5	TIP3
239	5	-3.308	-8.597	42.742001	#	5	TIP3
240	4	-5.972	-2.301	41.776001	#	4	TIP3
241	5	-5.423	-2.807	41.138	#	5	TIP3
242	5	-6.829	-2.68	41.543999	#	5	TIP3
243	4	1.177	-0.39	36.928001	#	4	TIP3
244	5	0.443	0.172	37.053001	#	5	TIP3
245	5	0.866	-1.212	37.298	#	5	TIP3
246	4	-8.162	-6.794	44.397999	#	4	TIP3
247	5	-7.799	-5.919	44.544998	#	5	TIP3
248	5	-7.883	-7.001	43.422001	#	5	TIP3
249	4	-2.071	-0.399	33.321999	#	4	TIP3
250	5	-2.636	0.34	32.911999	#	5	TIP3
251	5	-2.682	-0.989	33.82	#	5	TIP3
252	4	-6.68	-8.561	32.693001	#	4	TIP3
253	5	-6.982	-8.737	31.795	#	5	TIP3
254	5	-5.782	-8.263	32.533001	#	5	TIP3
255	4	-5.461	-7.395	37.294998	#	4	TIP3
256	5	-4.54	-7.298	37.123001	#	5	TIP3
257	5	-5.566	-8.384	37.362999	#	5	TIP3
258	4	-3.333	-2.453	38.646	#	4	TIP3
259	5	-3.897	-3.025	39.296001	#	5	TIP3
260	5	-2.442	-2.708	39.046001	#	5	TIP3
261	4	-5.346	-4.283	34.022999	#	4	TIP3
262	5	-4.941	-4.874	33.395	#	5	TIP3
263	5	-4.591	-4.215	34.633999	#	5	TIP3
264	4	-6.314	-1.647	32.401001	#	4	TIP3
265	5	-5.506	-2.07	32.084	#	5	TIP3
266	5	-6.959	-2.273	32.196999	#	5	TIP3
267	4	0.03	1.441	32.433998	#	4	TIP3
268	5	-0.726	0.827	32.422001	#	5	TIP3
269	5	0.533	1.362	31.660999	#	5	TIP3
270	4	0.55	-0.456	40.314999	#	4	TIP3
271	5	0.055	0.343	40.396	#	5	TIP3
272	5	1.46	-0.154	40.337002	#	5	TIP3
273	4	-4.55	-0.933	34.337002	#	4	TIP3
274	5	-5.278	-1.16	33.710999	#	5	TIP3
275	5	-5.061	-1.23	35.117001	#	5	TIP3
276	4	-3.143	1.138	35.828999	#	4	TIP3
277	5	-3.893	1.75	35.799999	#	5	TIP3
278	5	-3.52	0.387	35.353001	#	5	TIP3
279	4	-0.803	-5.625	44.964001	#	4	TIP3
280	5	-0.837	-6.41	44.387001	#	5	TIP3
281	5	-1.484	-5.833	45.604	#	5	TIP3
282	4	-7.579	-6.225	34.057999	#	4	TIP3
283	5	-7.316	-7.066	33.652	#	5	TIP3
284	5	-6.781	-5.66	34.048	#	5	TIP3
285	4	-4.859	-8.389	29.499001	#	4	TIP3
286	5	-5.303	-8.89	30.233999	#	5	TIP3
287	5	-3.969	-8.698	29.586	#	5	TIP3
288	4	-7.491	-6.495	41.91	#	4	TIP3
289	5	-7.886	-5.862	41.314999	#	5	TIP3
290	5	-7.285	-7.288	41.382999	#	5	TIP3
291	4	-4.539	-3.246	30.943001	#	4	TIP3
292	5	-3.588	-3.373	31.018	#	5	TIP3
293	5	-4.791	-4.044	30.434	#	5	TIP3
294	4	-2.686	-9.772	38.152	#	4	TIP3
295	5	-2.553	-9.804	37.157001	#	5	TIP3
296	5	-1.781	-9.664	38.425999	#	5	TIP3
297	4	-9.711	0.538	42.467999	#	4	TIP3
298	5	-9.714	0.937	41.602001	#	5	TIP3
299	5	-8.738	0.357	42.668999	#	5	TIP3
300	4	-3.032	1.629	31.353001	#	4	TIP3
301	5	-3.425	0.896	30.806999	#	5	TIP3
302	5	-2.917	2.29	30.59	#	5	TIP3
303	4	0.963	-8.263	40.790001	#	4	TIP3
304	5	0.319	-7.76	40.334	#	5	TIP3
305	5	1.709	-7.833	40.209999	#	5	TIP3
306	4	-4.474	-1.631	43.858002	#	4	TIP3
307	5	-5.05	-1.782	43.071999	#	5	TIP3
308	5	-5.055	-1.081	44.362999	#	5	TIP3
309	4	-2.471	-5.492	30.396	#	4	TIP3
310	5	-1.687	-5.418	29.857	#	5	TIP3
311	5	-3.217	-5.489	29.768	#	5	TIP3
312	4	-5.116	-5.919	42.713001	#	4	TIP3
313	5	-5.03	-5.254	43.373001	#	5	TIP3
314	5	-6.068	-6.025	42.592999	#	5	TIP3
315	4	-6.826	1.159	34.953999	#	4	TIP3
316	5	-6.096	1.073	34.352001	#	5	TIP3
317	5	-6.796	2.104	35.129002	#	5	TIP3
318	4	-6.883	1.819	39.07	#	4	TIP3
319	5	-6.51	2.496	38.522999	#	5	TIP3
320	5	-6.063	1.583	39.539001	#	5	TIP3
321	4	0.05	-4.395	34.757999	#	4	TIP3
322	5	0.155	-3.446	34.556	#	5	TIP3
323	5	0.797	-4.611	35.308998	#	5	TIP3
324	4	-2.119	-6.482	34.700001	#	4	TIP3
325	5	-1.45	-5.775	34.812	#	5	TIP3
326	5	-2.93	-6.166	35.168999	#	5	TIP3
327	4	-1.441	-6.485	40.535	#	4	TIP3
328	5	-1.565	-5.702	41.154999	#	5	TIP3
329	5	-2.045	-7.101	40.952	#	5	TIP3
330	4	-1.6	-4.448	42.556999	#	4	TIP3
331	5	-0.93	-4.76	43.185001	#	5	TIP3
332	5	-2.261	-4.055	43.162998	#	5	TIP3
333	4	-0.984	-5.914	37.813999	#	4	TIP3
334	5	-0.623	-4.999	37.813	#	5	TIP3
335	5	-1.274	-6.259	38.660999	#	5	TIP3
336	4	-3.561	-4.856	36.455002	#	4	TIP3
337	5	-2.69	-5.164	36.837002	#	5	TIP3
338	5	-3.879	-4.181	37.116001	#	5	TIP3
339	4	-0.869	-8.925	44.841	#	4	TIP3
340	5	-0.052	-8.537	44.411999	#	5	TIP3
341	5	-0.887	-9.839	44.464001	#	5	TIP3
342	4	1.316	-7.727	36.956001	#	4	TIP3
343	5	1.391	-8.642	37.151001	#	5	TIP3
344	5	0.423	-7.521	37.181	#	5	TIP3
345	4	0.407	-3.351	37.888	#	4	TIP3
346	5	-0.19	-2.785	38.386002	#	5	TIP3
347	5	1.077	-3.583	38.547001	#	5	TIP3
348	4	-1.1	-2.69	40.290001	#	4	TIP3
349	5	-1.261	-3.294	41.077999	#	5	TIP3
350	5	-0.445	-1.997	40.530998	#	5	TIP3
351	4	-6.92	-9.051	40.787998	#	4	TIP3
352	5	-6.31	-9.5	40.172001	#	5	TIP3
353	5	-7.804	-9.444	40.640999	#	5	TIP3
354	4	-3.745	-0.198	29.364	#	4	TIP3
355	5	-3.046	-0.879	29.671	#	5	TIP3
356	5	-4.541	-0.736	29.195999	#	5	TIP3
357	4	-3.86	-6.331	32.703999	#	4	TIP3
358	5	-3.268	-6.163	31.948999	#	5	TIP3
359	5	-3.193	-6.592	33.377998	#	5	TIP3
360	4	-4.85	1.685	40.993999	#	4	TIP3
361	5	-4.688	2.641	41.02	#	5	TIP3
362	5	-4.386	1.405	41.778	#	5	TIP3
363	4	-9.312	-7.219	36.113998	#	4	TIP3
364	5	-8.512	-6.81	35.702999	#	5	TIP3
365	5	-9.947	-6.571	35.93	#	5	TIP3
366	4	-9.551	-2.634	38.139999	#	4	TIP3
367	5	-9.798	-3.521	38.095001	#	5	TIP3
368	5	-9.204	-2.437	37.256001	#	5	TIP3
369	4	-9.087	2.32	29.937	#	4	TIP3
370	5	-9.377	1.7	29.268	#	5	TIP3
371	5	-8.71	1.784	30.628	#	5	TIP3
372	4	-6.594	-9.883	43.493	#	4	TIP3
373	5	-6.652	-9.756	42.546001	#	5	TIP3
374	5	-5.622	-9.81	43.723999	#	5	TIP3
375	4	-7.722	-6.078	30.200001	#	4	TIP3
376	5	-7.299	-6.608	29.559999	#	5	TIP3
377	5	-8.444	-6.594	30.415001	#	5	TIP3
378	4	-6.562	-1.901	29.316	#	4	TIP3
379	5	-7.453	-2.153	29.577	#	5	TIP3
380	5	-6.111	-2.225	30.093	#	5	TIP3
381	4	-8.438	-3.464	41.238998	#	4	TIP3
382	5	-9.04	-2.75	41.049	#	5	TIP3
383	5	-8.803	-4.173	40.553001	#	5	TIP3
384	4	-8.686	-0.615	36.173	#	4	TIP3
385	5	-8.667	-1.294	35.444	#	5	TIP3
386	5	-7.944	-0.047	35.98	#	5	TIP3
387	4	-2.428	-9.58	32.478001	#	4	TIP3
388	5	-2.364	-9.661	31.503	#	5	TIP3
389	5	-3.372	-9.766	32.529999	#	5	TIP3
390	4	-8.867	-2.92	34.077999	#	4	TIP3
391	5	-8.799	-2.898	33.137001	#	5	TIP3
392	5	-9.642	-3.451	34.301998	#	5	TIP3
393	4	-4.721	-4.245	40.457001	#	4	TIP3
394	5	-5.496	-4.667	39.966999	#	5	TIP3
395	5	-4.436	-5.014	41.019001	#	5	TIP3
396	4	-9.325	1.574	39.952	#	4	TIP3
397	5	-8.403	1.546	39.574001	#	5	TIP3
398	5	-9.735	2.15	39.339001	#	5	TIP3
399	4	-1.422	-9.168	35.351002	#	4	TIP3
400	5	-2.072	-9.47	34.693001	#	5	TIP3
401	5	-1.437	-8.199	35.334999	#	5	TIP3
402	4	-2.713	0.172	42.814999	#	4	TIP3
403	5	-3.369	-0.527	43.077	#	5	TIP3
404	5	-1.881	-0.331	42.852001	#	5	TIP3
